LAMMPS data file. CGCMM style. atom_style molecular generated by VMD/TopoTools v1.7 on Mon Oct 16 21:35:33 -0300 2023
 840 atoms
 1 atom types
 -40.000000 40.000000  xlo xhi
 -40.000000 40.000000  ylo yhi
 -14.825508 65.174492  zlo zhi

 Masses

 1 12.010700 # CA

 Atoms # molecular

1 1 1 6.779741 0.000000 0.000000 # CA CNT
2 2 1 6.631588 1.409587 0.000000 # CA CNT
3 3 1 6.447917 2.095055 1.228024 # CA CNT
4 4 1 5.871428 3.389870 1.228024 # CA CNT
5 5 1 5.484926 3.985032 0.000000 # CA CNT
6 6 1 4.536532 5.038330 0.000000 # CA CNT
7 7 1 3.985032 5.484926 1.228024 # CA CNT
8 8 1 2.757569 6.193602 1.228024 # CA CNT
9 9 1 2.095055 6.447917 0.000000 # CA CNT
10 10 1 0.708676 6.742601 0.000000 # CA CNT
11 11 1 0.000000 6.779741 1.228024 # CA CNT
12 12 1 -1.409587 6.631588 1.228024 # CA CNT
13 13 1 -2.095055 6.447917 0.000000 # CA CNT
14 14 1 -3.389870 5.871428 0.000000 # CA CNT
15 15 1 -3.985032 5.484926 1.228024 # CA CNT
16 16 1 -5.038330 4.536532 1.228024 # CA CNT
17 17 1 -5.484926 3.985032 0.000000 # CA CNT
18 18 1 -6.193602 2.757569 0.000000 # CA CNT
19 19 1 -6.447917 2.095055 1.228024 # CA CNT
20 20 1 -6.742601 0.708676 1.228024 # CA CNT
21 21 1 -6.779741 0.000000 0.000000 # CA CNT
22 22 1 -6.631588 -1.409587 0.000000 # CA CNT
23 23 1 -6.447917 -2.095055 1.228024 # CA CNT
24 24 1 -5.871428 -3.389870 1.228024 # CA CNT
25 25 1 -5.484926 -3.985032 0.000000 # CA CNT
26 26 1 -4.536532 -5.038330 0.000000 # CA CNT
27 27 1 -3.985032 -5.484926 1.228024 # CA CNT
28 28 1 -2.757569 -6.193602 1.228024 # CA CNT
29 29 1 -2.095055 -6.447917 0.000000 # CA CNT
30 30 1 -0.708676 -6.742601 0.000000 # CA CNT
31 31 1 -0.000000 -6.779741 1.228024 # CA CNT
32 32 1 1.409587 -6.631588 1.228024 # CA CNT
33 33 1 2.095055 -6.447917 0.000000 # CA CNT
34 34 1 3.389870 -5.871428 0.000000 # CA CNT
35 35 1 3.985032 -5.484926 1.228024 # CA CNT
36 36 1 5.038330 -4.536532 1.228024 # CA CNT
37 37 1 5.484926 -3.985032 0.000000 # CA CNT
38 38 1 6.193602 -2.757569 0.000000 # CA CNT
39 39 1 6.447917 -2.095055 1.228024 # CA CNT
40 40 1 6.742601 -0.708676 1.228024 # CA CNT
41 41 1 6.779741 0.000000 2.456048 # CA CNT
42 42 1 6.631588 1.409587 2.456048 # CA CNT
43 43 1 6.447917 2.095055 3.684072 # CA CNT
44 44 1 5.871428 3.389870 3.684072 # CA CNT
45 45 1 5.484926 3.985032 2.456048 # CA CNT
46 46 1 4.536532 5.038330 2.456048 # CA CNT
47 47 1 3.985032 5.484926 3.684072 # CA CNT
48 48 1 2.757569 6.193602 3.684072 # CA CNT
49 49 1 2.095055 6.447917 2.456048 # CA CNT
50 50 1 0.708676 6.742601 2.456048 # CA CNT
51 51 1 0.000000 6.779741 3.684072 # CA CNT
52 52 1 -1.409587 6.631588 3.684072 # CA CNT
53 53 1 -2.095055 6.447917 2.456048 # CA CNT
54 54 1 -3.389870 5.871428 2.456048 # CA CNT
55 55 1 -3.985032 5.484926 3.684072 # CA CNT
56 56 1 -5.038330 4.536532 3.684072 # CA CNT
57 57 1 -5.484926 3.985032 2.456048 # CA CNT
58 58 1 -6.193602 2.757569 2.456048 # CA CNT
59 59 1 -6.447917 2.095055 3.684072 # CA CNT
60 60 1 -6.742601 0.708676 3.684072 # CA CNT
61 61 1 -6.779741 0.000000 2.456048 # CA CNT
62 62 1 -6.631588 -1.409587 2.456048 # CA CNT
63 63 1 -6.447917 -2.095055 3.684072 # CA CNT
64 64 1 -5.871428 -3.389870 3.684072 # CA CNT
65 65 1 -5.484926 -3.985032 2.456048 # CA CNT
66 66 1 -4.536532 -5.038330 2.456048 # CA CNT
67 67 1 -3.985032 -5.484926 3.684072 # CA CNT
68 68 1 -2.757569 -6.193602 3.684072 # CA CNT
69 69 1 -2.095055 -6.447917 2.456048 # CA CNT
70 70 1 -0.708676 -6.742601 2.456048 # CA CNT
71 71 1 -0.000000 -6.779741 3.684072 # CA CNT
72 72 1 1.409587 -6.631588 3.684072 # CA CNT
73 73 1 2.095055 -6.447917 2.456048 # CA CNT
74 74 1 3.389870 -5.871428 2.456048 # CA CNT
75 75 1 3.985032 -5.484926 3.684072 # CA CNT
76 76 1 5.038330 -4.536532 3.684072 # CA CNT
77 77 1 5.484926 -3.985032 2.456048 # CA CNT
78 78 1 6.193602 -2.757569 2.456048 # CA CNT
79 79 1 6.447917 -2.095055 3.684072 # CA CNT
80 80 1 6.742601 -0.708676 3.684072 # CA CNT
81 81 1 6.779741 0.000000 4.912096 # CA CNT
82 82 1 6.631588 1.409587 4.912096 # CA CNT
83 83 1 6.447917 2.095055 6.140120 # CA CNT
84 84 1 5.871428 3.389870 6.140120 # CA CNT
85 85 1 5.484926 3.985032 4.912096 # CA CNT
86 86 1 4.536532 5.038330 4.912096 # CA CNT
87 87 1 3.985032 5.484926 6.140120 # CA CNT
88 88 1 2.757569 6.193602 6.140120 # CA CNT
89 89 1 2.095055 6.447917 4.912096 # CA CNT
90 90 1 0.708676 6.742601 4.912096 # CA CNT
91 91 1 0.000000 6.779741 6.140120 # CA CNT
92 92 1 -1.409587 6.631588 6.140120 # CA CNT
93 93 1 -2.095055 6.447917 4.912096 # CA CNT
94 94 1 -3.389870 5.871428 4.912096 # CA CNT
95 95 1 -3.985032 5.484926 6.140120 # CA CNT
96 96 1 -5.038330 4.536532 6.140120 # CA CNT
97 97 1 -5.484926 3.985032 4.912096 # CA CNT
98 98 1 -6.193602 2.757569 4.912096 # CA CNT
99 99 1 -6.447917 2.095055 6.140120 # CA CNT
100 100 1 -6.742601 0.708676 6.140120 # CA CNT
101 101 1 -6.779741 0.000000 4.912096 # CA CNT
102 102 1 -6.631588 -1.409587 4.912096 # CA CNT
103 103 1 -6.447917 -2.095055 6.140120 # CA CNT
104 104 1 -5.871428 -3.389870 6.140120 # CA CNT
105 105 1 -5.484926 -3.985032 4.912096 # CA CNT
106 106 1 -4.536532 -5.038330 4.912096 # CA CNT
107 107 1 -3.985032 -5.484926 6.140120 # CA CNT
108 108 1 -2.757569 -6.193602 6.140120 # CA CNT
109 109 1 -2.095055 -6.447917 4.912096 # CA CNT
110 110 1 -0.708676 -6.742601 4.912096 # CA CNT
111 111 1 -0.000000 -6.779741 6.140120 # CA CNT
112 112 1 1.409587 -6.631588 6.140120 # CA CNT
113 113 1 2.095055 -6.447917 4.912096 # CA CNT
114 114 1 3.389870 -5.871428 4.912096 # CA CNT
115 115 1 3.985032 -5.484926 6.140120 # CA CNT
116 116 1 5.038330 -4.536532 6.140120 # CA CNT
117 117 1 5.484926 -3.985032 4.912096 # CA CNT
118 118 1 6.193602 -2.757569 4.912096 # CA CNT
119 119 1 6.447917 -2.095055 6.140120 # CA CNT
120 120 1 6.742601 -0.708676 6.140120 # CA CNT
121 121 1 6.779741 0.000000 7.368144 # CA CNT
122 122 1 6.631588 1.409587 7.368144 # CA CNT
123 123 1 6.447917 2.095055 8.596169 # CA CNT
124 124 1 5.871428 3.389870 8.596169 # CA CNT
125 125 1 5.484926 3.985032 7.368144 # CA CNT
126 126 1 4.536532 5.038330 7.368144 # CA CNT
127 127 1 3.985032 5.484926 8.596169 # CA CNT
128 128 1 2.757569 6.193602 8.596169 # CA CNT
129 129 1 2.095055 6.447917 7.368144 # CA CNT
130 130 1 0.708676 6.742601 7.368144 # CA CNT
131 131 1 0.000000 6.779741 8.596169 # CA CNT
132 132 1 -1.409587 6.631588 8.596169 # CA CNT
133 133 1 -2.095055 6.447917 7.368144 # CA CNT
134 134 1 -3.389870 5.871428 7.368144 # CA CNT
135 135 1 -3.985032 5.484926 8.596169 # CA CNT
136 136 1 -5.038330 4.536532 8.596169 # CA CNT
137 137 1 -5.484926 3.985032 7.368144 # CA CNT
138 138 1 -6.193602 2.757569 7.368144 # CA CNT
139 139 1 -6.447917 2.095055 8.596169 # CA CNT
140 140 1 -6.742601 0.708676 8.596169 # CA CNT
141 141 1 -6.779741 0.000000 7.368144 # CA CNT
142 142 1 -6.631588 -1.409587 7.368144 # CA CNT
143 143 1 -6.447917 -2.095055 8.596169 # CA CNT
144 144 1 -5.871428 -3.389870 8.596169 # CA CNT
145 145 1 -5.484926 -3.985032 7.368144 # CA CNT
146 146 1 -4.536532 -5.038330 7.368144 # CA CNT
147 147 1 -3.985032 -5.484926 8.596169 # CA CNT
148 148 1 -2.757569 -6.193602 8.596169 # CA CNT
149 149 1 -2.095055 -6.447917 7.368144 # CA CNT
150 150 1 -0.708676 -6.742601 7.368144 # CA CNT
151 151 1 -0.000000 -6.779741 8.596169 # CA CNT
152 152 1 1.409587 -6.631588 8.596169 # CA CNT
153 153 1 2.095055 -6.447917 7.368144 # CA CNT
154 154 1 3.389870 -5.871428 7.368144 # CA CNT
155 155 1 3.985032 -5.484926 8.596169 # CA CNT
156 156 1 5.038330 -4.536532 8.596169 # CA CNT
157 157 1 5.484926 -3.985032 7.368144 # CA CNT
158 158 1 6.193602 -2.757569 7.368144 # CA CNT
159 159 1 6.447917 -2.095055 8.596169 # CA CNT
160 160 1 6.742601 -0.708676 8.596169 # CA CNT
161 161 1 6.779741 0.000000 9.824192 # CA CNT
162 162 1 6.631588 1.409587 9.824192 # CA CNT
163 163 1 6.447917 2.095055 11.052217 # CA CNT
164 164 1 5.871428 3.389870 11.052217 # CA CNT
165 165 1 5.484926 3.985032 9.824192 # CA CNT
166 166 1 4.536532 5.038330 9.824192 # CA CNT
167 167 1 3.985032 5.484926 11.052217 # CA CNT
168 168 1 2.757569 6.193602 11.052217 # CA CNT
169 169 1 2.095055 6.447917 9.824192 # CA CNT
170 170 1 0.708676 6.742601 9.824192 # CA CNT
171 171 1 0.000000 6.779741 11.052217 # CA CNT
172 172 1 -1.409587 6.631588 11.052217 # CA CNT
173 173 1 -2.095055 6.447917 9.824192 # CA CNT
174 174 1 -3.389870 5.871428 9.824192 # CA CNT
175 175 1 -3.985032 5.484926 11.052217 # CA CNT
176 176 1 -5.038330 4.536532 11.052217 # CA CNT
177 177 1 -5.484926 3.985032 9.824192 # CA CNT
178 178 1 -6.193602 2.757569 9.824192 # CA CNT
179 179 1 -6.447917 2.095055 11.052217 # CA CNT
180 180 1 -6.742601 0.708676 11.052217 # CA CNT
181 181 1 -6.779741 0.000000 9.824192 # CA CNT
182 182 1 -6.631588 -1.409587 9.824192 # CA CNT
183 183 1 -6.447917 -2.095055 11.052217 # CA CNT
184 184 1 -5.871428 -3.389870 11.052217 # CA CNT
185 185 1 -5.484926 -3.985032 9.824192 # CA CNT
186 186 1 -4.536532 -5.038330 9.824192 # CA CNT
187 187 1 -3.985032 -5.484926 11.052217 # CA CNT
188 188 1 -2.757569 -6.193602 11.052217 # CA CNT
189 189 1 -2.095055 -6.447917 9.824192 # CA CNT
190 190 1 -0.708676 -6.742601 9.824192 # CA CNT
191 191 1 -0.000000 -6.779741 11.052217 # CA CNT
192 192 1 1.409587 -6.631588 11.052217 # CA CNT
193 193 1 2.095055 -6.447917 9.824192 # CA CNT
194 194 1 3.389870 -5.871428 9.824192 # CA CNT
195 195 1 3.985032 -5.484926 11.052217 # CA CNT
196 196 1 5.038330 -4.536532 11.052217 # CA CNT
197 197 1 5.484926 -3.985032 9.824192 # CA CNT
198 198 1 6.193602 -2.757569 9.824192 # CA CNT
199 199 1 6.447917 -2.095055 11.052217 # CA CNT
200 200 1 6.742601 -0.708676 11.052217 # CA CNT
201 201 1 6.779741 0.000000 12.280240 # CA CNT
202 202 1 6.631588 1.409587 12.280240 # CA CNT
203 203 1 6.447917 2.095055 13.508265 # CA CNT
204 204 1 5.871428 3.389870 13.508265 # CA CNT
205 205 1 5.484926 3.985032 12.280240 # CA CNT
206 206 1 4.536532 5.038330 12.280240 # CA CNT
207 207 1 3.985032 5.484926 13.508265 # CA CNT
208 208 1 2.757569 6.193602 13.508265 # CA CNT
209 209 1 2.095055 6.447917 12.280240 # CA CNT
210 210 1 0.708676 6.742601 12.280240 # CA CNT
211 211 1 0.000000 6.779741 13.508265 # CA CNT
212 212 1 -1.409587 6.631588 13.508265 # CA CNT
213 213 1 -2.095055 6.447917 12.280240 # CA CNT
214 214 1 -3.389870 5.871428 12.280240 # CA CNT
215 215 1 -3.985032 5.484926 13.508265 # CA CNT
216 216 1 -5.038330 4.536532 13.508265 # CA CNT
217 217 1 -5.484926 3.985032 12.280240 # CA CNT
218 218 1 -6.193602 2.757569 12.280240 # CA CNT
219 219 1 -6.447917 2.095055 13.508265 # CA CNT
220 220 1 -6.742601 0.708676 13.508265 # CA CNT
221 221 1 -6.779741 0.000000 12.280240 # CA CNT
222 222 1 -6.631588 -1.409587 12.280240 # CA CNT
223 223 1 -6.447917 -2.095055 13.508265 # CA CNT
224 224 1 -5.871428 -3.389870 13.508265 # CA CNT
225 225 1 -5.484926 -3.985032 12.280240 # CA CNT
226 226 1 -4.536532 -5.038330 12.280240 # CA CNT
227 227 1 -3.985032 -5.484926 13.508265 # CA CNT
228 228 1 -2.757569 -6.193602 13.508265 # CA CNT
229 229 1 -2.095055 -6.447917 12.280240 # CA CNT
230 230 1 -0.708676 -6.742601 12.280240 # CA CNT
231 231 1 -0.000000 -6.779741 13.508265 # CA CNT
232 232 1 1.409587 -6.631588 13.508265 # CA CNT
233 233 1 2.095055 -6.447917 12.280240 # CA CNT
234 234 1 3.389870 -5.871428 12.280240 # CA CNT
235 235 1 3.985032 -5.484926 13.508265 # CA CNT
236 236 1 5.038330 -4.536532 13.508265 # CA CNT
237 237 1 5.484926 -3.985032 12.280240 # CA CNT
238 238 1 6.193602 -2.757569 12.280240 # CA CNT
239 239 1 6.447917 -2.095055 13.508265 # CA CNT
240 240 1 6.742601 -0.708676 13.508265 # CA CNT
241 241 1 6.779741 0.000000 14.736288 # CA CNT
242 242 1 6.631588 1.409587 14.736288 # CA CNT
243 243 1 6.447917 2.095055 15.964313 # CA CNT
244 244 1 5.871428 3.389870 15.964313 # CA CNT
245 245 1 5.484926 3.985032 14.736288 # CA CNT
246 246 1 4.536532 5.038330 14.736288 # CA CNT
247 247 1 3.985032 5.484926 15.964313 # CA CNT
248 248 1 2.757569 6.193602 15.964313 # CA CNT
249 249 1 2.095055 6.447917 14.736288 # CA CNT
250 250 1 0.708676 6.742601 14.736288 # CA CNT
251 251 1 0.000000 6.779741 15.964313 # CA CNT
252 252 1 -1.409587 6.631588 15.964313 # CA CNT
253 253 1 -2.095055 6.447917 14.736288 # CA CNT
254 254 1 -3.389870 5.871428 14.736288 # CA CNT
255 255 1 -3.985032 5.484926 15.964313 # CA CNT
256 256 1 -5.038330 4.536532 15.964313 # CA CNT
257 257 1 -5.484926 3.985032 14.736288 # CA CNT
258 258 1 -6.193602 2.757569 14.736288 # CA CNT
259 259 1 -6.447917 2.095055 15.964313 # CA CNT
260 260 1 -6.742601 0.708676 15.964313 # CA CNT
261 261 1 -6.779741 0.000000 14.736288 # CA CNT
262 262 1 -6.631588 -1.409587 14.736288 # CA CNT
263 263 1 -6.447917 -2.095055 15.964313 # CA CNT
264 264 1 -5.871428 -3.389870 15.964313 # CA CNT
265 265 1 -5.484926 -3.985032 14.736288 # CA CNT
266 266 1 -4.536532 -5.038330 14.736288 # CA CNT
267 267 1 -3.985032 -5.484926 15.964313 # CA CNT
268 268 1 -2.757569 -6.193602 15.964313 # CA CNT
269 269 1 -2.095055 -6.447917 14.736288 # CA CNT
270 270 1 -0.708676 -6.742601 14.736288 # CA CNT
271 271 1 -0.000000 -6.779741 15.964313 # CA CNT
272 272 1 1.409587 -6.631588 15.964313 # CA CNT
273 273 1 2.095055 -6.447917 14.736288 # CA CNT
274 274 1 3.389870 -5.871428 14.736288 # CA CNT
275 275 1 3.985032 -5.484926 15.964313 # CA CNT
276 276 1 5.038330 -4.536532 15.964313 # CA CNT
277 277 1 5.484926 -3.985032 14.736288 # CA CNT
278 278 1 6.193602 -2.757569 14.736288 # CA CNT
279 279 1 6.447917 -2.095055 15.964313 # CA CNT
280 280 1 6.742601 -0.708676 15.964313 # CA CNT
281 281 1 6.779741 0.000000 17.192337 # CA CNT
282 282 1 6.631588 1.409587 17.192337 # CA CNT
283 283 1 6.447917 2.095055 18.420361 # CA CNT
284 284 1 5.871428 3.389870 18.420361 # CA CNT
285 285 1 5.484926 3.985032 17.192337 # CA CNT
286 286 1 4.536532 5.038330 17.192337 # CA CNT
287 287 1 3.985032 5.484926 18.420361 # CA CNT
288 288 1 2.757569 6.193602 18.420361 # CA CNT
289 289 1 2.095055 6.447917 17.192337 # CA CNT
290 290 1 0.708676 6.742601 17.192337 # CA CNT
291 291 1 0.000000 6.779741 18.420361 # CA CNT
292 292 1 -1.409587 6.631588 18.420361 # CA CNT
293 293 1 -2.095055 6.447917 17.192337 # CA CNT
294 294 1 -3.389870 5.871428 17.192337 # CA CNT
295 295 1 -3.985032 5.484926 18.420361 # CA CNT
296 296 1 -5.038330 4.536532 18.420361 # CA CNT
297 297 1 -5.484926 3.985032 17.192337 # CA CNT
298 298 1 -6.193602 2.757569 17.192337 # CA CNT
299 299 1 -6.447917 2.095055 18.420361 # CA CNT
300 300 1 -6.742601 0.708676 18.420361 # CA CNT
301 301 1 -6.779741 0.000000 17.192337 # CA CNT
302 302 1 -6.631588 -1.409587 17.192337 # CA CNT
303 303 1 -6.447917 -2.095055 18.420361 # CA CNT
304 304 1 -5.871428 -3.389870 18.420361 # CA CNT
305 305 1 -5.484926 -3.985032 17.192337 # CA CNT
306 306 1 -4.536532 -5.038330 17.192337 # CA CNT
307 307 1 -3.985032 -5.484926 18.420361 # CA CNT
308 308 1 -2.757569 -6.193602 18.420361 # CA CNT
309 309 1 -2.095055 -6.447917 17.192337 # CA CNT
310 310 1 -0.708676 -6.742601 17.192337 # CA CNT
311 311 1 -0.000000 -6.779741 18.420361 # CA CNT
312 312 1 1.409587 -6.631588 18.420361 # CA CNT
313 313 1 2.095055 -6.447917 17.192337 # CA CNT
314 314 1 3.389870 -5.871428 17.192337 # CA CNT
315 315 1 3.985032 -5.484926 18.420361 # CA CNT
316 316 1 5.038330 -4.536532 18.420361 # CA CNT
317 317 1 5.484926 -3.985032 17.192337 # CA CNT
318 318 1 6.193602 -2.757569 17.192337 # CA CNT
319 319 1 6.447917 -2.095055 18.420361 # CA CNT
320 320 1 6.742601 -0.708676 18.420361 # CA CNT
321 321 1 6.779741 0.000000 19.648384 # CA CNT
322 322 1 6.631588 1.409587 19.648384 # CA CNT
323 323 1 6.447917 2.095055 20.876408 # CA CNT
324 324 1 5.871428 3.389870 20.876408 # CA CNT
325 325 1 5.484926 3.985032 19.648384 # CA CNT
326 326 1 4.536532 5.038330 19.648384 # CA CNT
327 327 1 3.985032 5.484926 20.876408 # CA CNT
328 328 1 2.757569 6.193602 20.876408 # CA CNT
329 329 1 2.095055 6.447917 19.648384 # CA CNT
330 330 1 0.708676 6.742601 19.648384 # CA CNT
331 331 1 0.000000 6.779741 20.876408 # CA CNT
332 332 1 -1.409587 6.631588 20.876408 # CA CNT
333 333 1 -2.095055 6.447917 19.648384 # CA CNT
334 334 1 -3.389870 5.871428 19.648384 # CA CNT
335 335 1 -3.985032 5.484926 20.876408 # CA CNT
336 336 1 -5.038330 4.536532 20.876408 # CA CNT
337 337 1 -5.484926 3.985032 19.648384 # CA CNT
338 338 1 -6.193602 2.757569 19.648384 # CA CNT
339 339 1 -6.447917 2.095055 20.876408 # CA CNT
340 340 1 -6.742601 0.708676 20.876408 # CA CNT
341 341 1 -6.779741 0.000000 19.648384 # CA CNT
342 342 1 -6.631588 -1.409587 19.648384 # CA CNT
343 343 1 -6.447917 -2.095055 20.876408 # CA CNT
344 344 1 -5.871428 -3.389870 20.876408 # CA CNT
345 345 1 -5.484926 -3.985032 19.648384 # CA CNT
346 346 1 -4.536532 -5.038330 19.648384 # CA CNT
347 347 1 -3.985032 -5.484926 20.876408 # CA CNT
348 348 1 -2.757569 -6.193602 20.876408 # CA CNT
349 349 1 -2.095055 -6.447917 19.648384 # CA CNT
350 350 1 -0.708676 -6.742601 19.648384 # CA CNT
351 351 1 -0.000000 -6.779741 20.876408 # CA CNT
352 352 1 1.409587 -6.631588 20.876408 # CA CNT
353 353 1 2.095055 -6.447917 19.648384 # CA CNT
354 354 1 3.389870 -5.871428 19.648384 # CA CNT
355 355 1 3.985032 -5.484926 20.876408 # CA CNT
356 356 1 5.038330 -4.536532 20.876408 # CA CNT
357 357 1 5.484926 -3.985032 19.648384 # CA CNT
358 358 1 6.193602 -2.757569 19.648384 # CA CNT
359 359 1 6.447917 -2.095055 20.876408 # CA CNT
360 360 1 6.742601 -0.708676 20.876408 # CA CNT
361 361 1 6.779741 0.000000 22.104433 # CA CNT
362 362 1 6.631588 1.409587 22.104433 # CA CNT
363 363 1 6.447917 2.095055 23.332457 # CA CNT
364 364 1 5.871428 3.389870 23.332457 # CA CNT
365 365 1 5.484926 3.985032 22.104433 # CA CNT
366 366 1 4.536532 5.038330 22.104433 # CA CNT
367 367 1 3.985032 5.484926 23.332457 # CA CNT
368 368 1 2.757569 6.193602 23.332457 # CA CNT
369 369 1 2.095055 6.447917 22.104433 # CA CNT
370 370 1 0.708676 6.742601 22.104433 # CA CNT
371 371 1 0.000000 6.779741 23.332457 # CA CNT
372 372 1 -1.409587 6.631588 23.332457 # CA CNT
373 373 1 -2.095055 6.447917 22.104433 # CA CNT
374 374 1 -3.389870 5.871428 22.104433 # CA CNT
375 375 1 -3.985032 5.484926 23.332457 # CA CNT
376 376 1 -5.038330 4.536532 23.332457 # CA CNT
377 377 1 -5.484926 3.985032 22.104433 # CA CNT
378 378 1 -6.193602 2.757569 22.104433 # CA CNT
379 379 1 -6.447917 2.095055 23.332457 # CA CNT
380 380 1 -6.742601 0.708676 23.332457 # CA CNT
381 381 1 -6.779741 0.000000 22.104433 # CA CNT
382 382 1 -6.631588 -1.409587 22.104433 # CA CNT
383 383 1 -6.447917 -2.095055 23.332457 # CA CNT
384 384 1 -5.871428 -3.389870 23.332457 # CA CNT
385 385 1 -5.484926 -3.985032 22.104433 # CA CNT
386 386 1 -4.536532 -5.038330 22.104433 # CA CNT
387 387 1 -3.985032 -5.484926 23.332457 # CA CNT
388 388 1 -2.757569 -6.193602 23.332457 # CA CNT
389 389 1 -2.095055 -6.447917 22.104433 # CA CNT
390 390 1 -0.708676 -6.742601 22.104433 # CA CNT
391 391 1 -0.000000 -6.779741 23.332457 # CA CNT
392 392 1 1.409587 -6.631588 23.332457 # CA CNT
393 393 1 2.095055 -6.447917 22.104433 # CA CNT
394 394 1 3.389870 -5.871428 22.104433 # CA CNT
395 395 1 3.985032 -5.484926 23.332457 # CA CNT
396 396 1 5.038330 -4.536532 23.332457 # CA CNT
397 397 1 5.484926 -3.985032 22.104433 # CA CNT
398 398 1 6.193602 -2.757569 22.104433 # CA CNT
399 399 1 6.447917 -2.095055 23.332457 # CA CNT
400 400 1 6.742601 -0.708676 23.332457 # CA CNT
401 401 1 6.779741 0.000000 24.560480 # CA CNT
402 402 1 6.631588 1.409587 24.560480 # CA CNT
403 403 1 6.447917 2.095055 25.788504 # CA CNT
404 404 1 5.871428 3.389870 25.788504 # CA CNT
405 405 1 5.484926 3.985032 24.560480 # CA CNT
406 406 1 4.536532 5.038330 24.560480 # CA CNT
407 407 1 3.985032 5.484926 25.788504 # CA CNT
408 408 1 2.757569 6.193602 25.788504 # CA CNT
409 409 1 2.095055 6.447917 24.560480 # CA CNT
410 410 1 0.708676 6.742601 24.560480 # CA CNT
411 411 1 0.000000 6.779741 25.788504 # CA CNT
412 412 1 -1.409587 6.631588 25.788504 # CA CNT
413 413 1 -2.095055 6.447917 24.560480 # CA CNT
414 414 1 -3.389870 5.871428 24.560480 # CA CNT
415 415 1 -3.985032 5.484926 25.788504 # CA CNT
416 416 1 -5.038330 4.536532 25.788504 # CA CNT
417 417 1 -5.484926 3.985032 24.560480 # CA CNT
418 418 1 -6.193602 2.757569 24.560480 # CA CNT
419 419 1 -6.447917 2.095055 25.788504 # CA CNT
420 420 1 -6.742601 0.708676 25.788504 # CA CNT
421 421 1 -6.779741 0.000000 24.560480 # CA CNT
422 422 1 -6.631588 -1.409587 24.560480 # CA CNT
423 423 1 -6.447917 -2.095055 25.788504 # CA CNT
424 424 1 -5.871428 -3.389870 25.788504 # CA CNT
425 425 1 -5.484926 -3.985032 24.560480 # CA CNT
426 426 1 -4.536532 -5.038330 24.560480 # CA CNT
427 427 1 -3.985032 -5.484926 25.788504 # CA CNT
428 428 1 -2.757569 -6.193602 25.788504 # CA CNT
429 429 1 -2.095055 -6.447917 24.560480 # CA CNT
430 430 1 -0.708676 -6.742601 24.560480 # CA CNT
431 431 1 -0.000000 -6.779741 25.788504 # CA CNT
432 432 1 1.409587 -6.631588 25.788504 # CA CNT
433 433 1 2.095055 -6.447917 24.560480 # CA CNT
434 434 1 3.389870 -5.871428 24.560480 # CA CNT
435 435 1 3.985032 -5.484926 25.788504 # CA CNT
436 436 1 5.038330 -4.536532 25.788504 # CA CNT
437 437 1 5.484926 -3.985032 24.560480 # CA CNT
438 438 1 6.193602 -2.757569 24.560480 # CA CNT
439 439 1 6.447917 -2.095055 25.788504 # CA CNT
440 440 1 6.742601 -0.708676 25.788504 # CA CNT
441 441 1 6.779741 0.000000 27.016529 # CA CNT
442 442 1 6.631588 1.409587 27.016529 # CA CNT
443 443 1 6.447917 2.095055 28.244553 # CA CNT
444 444 1 5.871428 3.389870 28.244553 # CA CNT
445 445 1 5.484926 3.985032 27.016529 # CA CNT
446 446 1 4.536532 5.038330 27.016529 # CA CNT
447 447 1 3.985032 5.484926 28.244553 # CA CNT
448 448 1 2.757569 6.193602 28.244553 # CA CNT
449 449 1 2.095055 6.447917 27.016529 # CA CNT
450 450 1 0.708676 6.742601 27.016529 # CA CNT
451 451 1 0.000000 6.779741 28.244553 # CA CNT
452 452 1 -1.409587 6.631588 28.244553 # CA CNT
453 453 1 -2.095055 6.447917 27.016529 # CA CNT
454 454 1 -3.389870 5.871428 27.016529 # CA CNT
455 455 1 -3.985032 5.484926 28.244553 # CA CNT
456 456 1 -5.038330 4.536532 28.244553 # CA CNT
457 457 1 -5.484926 3.985032 27.016529 # CA CNT
458 458 1 -6.193602 2.757569 27.016529 # CA CNT
459 459 1 -6.447917 2.095055 28.244553 # CA CNT
460 460 1 -6.742601 0.708676 28.244553 # CA CNT
461 461 1 -6.779741 0.000000 27.016529 # CA CNT
462 462 1 -6.631588 -1.409587 27.016529 # CA CNT
463 463 1 -6.447917 -2.095055 28.244553 # CA CNT
464 464 1 -5.871428 -3.389870 28.244553 # CA CNT
465 465 1 -5.484926 -3.985032 27.016529 # CA CNT
466 466 1 -4.536532 -5.038330 27.016529 # CA CNT
467 467 1 -3.985032 -5.484926 28.244553 # CA CNT
468 468 1 -2.757569 -6.193602 28.244553 # CA CNT
469 469 1 -2.095055 -6.447917 27.016529 # CA CNT
470 470 1 -0.708676 -6.742601 27.016529 # CA CNT
471 471 1 -0.000000 -6.779741 28.244553 # CA CNT
472 472 1 1.409587 -6.631588 28.244553 # CA CNT
473 473 1 2.095055 -6.447917 27.016529 # CA CNT
474 474 1 3.389870 -5.871428 27.016529 # CA CNT
475 475 1 3.985032 -5.484926 28.244553 # CA CNT
476 476 1 5.038330 -4.536532 28.244553 # CA CNT
477 477 1 5.484926 -3.985032 27.016529 # CA CNT
478 478 1 6.193602 -2.757569 27.016529 # CA CNT
479 479 1 6.447917 -2.095055 28.244553 # CA CNT
480 480 1 6.742601 -0.708676 28.244553 # CA CNT
481 481 1 6.779741 0.000000 29.472576 # CA CNT
482 482 1 6.631588 1.409587 29.472576 # CA CNT
483 483 1 6.447917 2.095055 30.700600 # CA CNT
484 484 1 5.871428 3.389870 30.700600 # CA CNT
485 485 1 5.484926 3.985032 29.472576 # CA CNT
486 486 1 4.536532 5.038330 29.472576 # CA CNT
487 487 1 3.985032 5.484926 30.700600 # CA CNT
488 488 1 2.757569 6.193602 30.700600 # CA CNT
489 489 1 2.095055 6.447917 29.472576 # CA CNT
490 490 1 0.708676 6.742601 29.472576 # CA CNT
491 491 1 0.000000 6.779741 30.700600 # CA CNT
492 492 1 -1.409587 6.631588 30.700600 # CA CNT
493 493 1 -2.095055 6.447917 29.472576 # CA CNT
494 494 1 -3.389870 5.871428 29.472576 # CA CNT
495 495 1 -3.985032 5.484926 30.700600 # CA CNT
496 496 1 -5.038330 4.536532 30.700600 # CA CNT
497 497 1 -5.484926 3.985032 29.472576 # CA CNT
498 498 1 -6.193602 2.757569 29.472576 # CA CNT
499 499 1 -6.447917 2.095055 30.700600 # CA CNT
500 500 1 -6.742601 0.708676 30.700600 # CA CNT
501 501 1 -6.779741 0.000000 29.472576 # CA CNT
502 502 1 -6.631588 -1.409587 29.472576 # CA CNT
503 503 1 -6.447917 -2.095055 30.700600 # CA CNT
504 504 1 -5.871428 -3.389870 30.700600 # CA CNT
505 505 1 -5.484926 -3.985032 29.472576 # CA CNT
506 506 1 -4.536532 -5.038330 29.472576 # CA CNT
507 507 1 -3.985032 -5.484926 30.700600 # CA CNT
508 508 1 -2.757569 -6.193602 30.700600 # CA CNT
509 509 1 -2.095055 -6.447917 29.472576 # CA CNT
510 510 1 -0.708676 -6.742601 29.472576 # CA CNT
511 511 1 -0.000000 -6.779741 30.700600 # CA CNT
512 512 1 1.409587 -6.631588 30.700600 # CA CNT
513 513 1 2.095055 -6.447917 29.472576 # CA CNT
514 514 1 3.389870 -5.871428 29.472576 # CA CNT
515 515 1 3.985032 -5.484926 30.700600 # CA CNT
516 516 1 5.038330 -4.536532 30.700600 # CA CNT
517 517 1 5.484926 -3.985032 29.472576 # CA CNT
518 518 1 6.193602 -2.757569 29.472576 # CA CNT
519 519 1 6.447917 -2.095055 30.700600 # CA CNT
520 520 1 6.742601 -0.708676 30.700600 # CA CNT
521 521 1 6.779741 0.000000 31.928625 # CA CNT
522 522 1 6.631588 1.409587 31.928625 # CA CNT
523 523 1 6.447917 2.095055 33.156647 # CA CNT
524 524 1 5.871428 3.389870 33.156647 # CA CNT
525 525 1 5.484926 3.985032 31.928625 # CA CNT
526 526 1 4.536532 5.038330 31.928625 # CA CNT
527 527 1 3.985032 5.484926 33.156647 # CA CNT
528 528 1 2.757569 6.193602 33.156647 # CA CNT
529 529 1 2.095055 6.447917 31.928625 # CA CNT
530 530 1 0.708676 6.742601 31.928625 # CA CNT
531 531 1 0.000000 6.779741 33.156647 # CA CNT
532 532 1 -1.409587 6.631588 33.156647 # CA CNT
533 533 1 -2.095055 6.447917 31.928625 # CA CNT
534 534 1 -3.389870 5.871428 31.928625 # CA CNT
535 535 1 -3.985032 5.484926 33.156647 # CA CNT
536 536 1 -5.038330 4.536532 33.156647 # CA CNT
537 537 1 -5.484926 3.985032 31.928625 # CA CNT
538 538 1 -6.193602 2.757569 31.928625 # CA CNT
539 539 1 -6.447917 2.095055 33.156647 # CA CNT
540 540 1 -6.742601 0.708676 33.156647 # CA CNT
541 541 1 -6.779741 0.000000 31.928625 # CA CNT
542 542 1 -6.631588 -1.409587 31.928625 # CA CNT
543 543 1 -6.447917 -2.095055 33.156647 # CA CNT
544 544 1 -5.871428 -3.389870 33.156647 # CA CNT
545 545 1 -5.484926 -3.985032 31.928625 # CA CNT
546 546 1 -4.536532 -5.038330 31.928625 # CA CNT
547 547 1 -3.985032 -5.484926 33.156647 # CA CNT
548 548 1 -2.757569 -6.193602 33.156647 # CA CNT
549 549 1 -2.095055 -6.447917 31.928625 # CA CNT
550 550 1 -0.708676 -6.742601 31.928625 # CA CNT
551 551 1 -0.000000 -6.779741 33.156647 # CA CNT
552 552 1 1.409587 -6.631588 33.156647 # CA CNT
553 553 1 2.095055 -6.447917 31.928625 # CA CNT
554 554 1 3.389870 -5.871428 31.928625 # CA CNT
555 555 1 3.985032 -5.484926 33.156647 # CA CNT
556 556 1 5.038330 -4.536532 33.156647 # CA CNT
557 557 1 5.484926 -3.985032 31.928625 # CA CNT
558 558 1 6.193602 -2.757569 31.928625 # CA CNT
559 559 1 6.447917 -2.095055 33.156647 # CA CNT
560 560 1 6.742601 -0.708676 33.156647 # CA CNT
561 561 1 6.779741 0.000000 34.384674 # CA CNT
562 562 1 6.631588 1.409587 34.384674 # CA CNT
563 563 1 6.447917 2.095055 35.612698 # CA CNT
564 564 1 5.871428 3.389870 35.612698 # CA CNT
565 565 1 5.484926 3.985032 34.384674 # CA CNT
566 566 1 4.536532 5.038330 34.384674 # CA CNT
567 567 1 3.985032 5.484926 35.612698 # CA CNT
568 568 1 2.757569 6.193602 35.612698 # CA CNT
569 569 1 2.095055 6.447917 34.384674 # CA CNT
570 570 1 0.708676 6.742601 34.384674 # CA CNT
571 571 1 0.000000 6.779741 35.612698 # CA CNT
572 572 1 -1.409587 6.631588 35.612698 # CA CNT
573 573 1 -2.095055 6.447917 34.384674 # CA CNT
574 574 1 -3.389870 5.871428 34.384674 # CA CNT
575 575 1 -3.985032 5.484926 35.612698 # CA CNT
576 576 1 -5.038330 4.536532 35.612698 # CA CNT
577 577 1 -5.484926 3.985032 34.384674 # CA CNT
578 578 1 -6.193602 2.757569 34.384674 # CA CNT
579 579 1 -6.447917 2.095055 35.612698 # CA CNT
580 580 1 -6.742601 0.708676 35.612698 # CA CNT
581 581 1 -6.779741 0.000000 34.384674 # CA CNT
582 582 1 -6.631588 -1.409587 34.384674 # CA CNT
583 583 1 -6.447917 -2.095055 35.612698 # CA CNT
584 584 1 -5.871428 -3.389870 35.612698 # CA CNT
585 585 1 -5.484926 -3.985032 34.384674 # CA CNT
586 586 1 -4.536532 -5.038330 34.384674 # CA CNT
587 587 1 -3.985032 -5.484926 35.612698 # CA CNT
588 588 1 -2.757569 -6.193602 35.612698 # CA CNT
589 589 1 -2.095055 -6.447917 34.384674 # CA CNT
590 590 1 -0.708676 -6.742601 34.384674 # CA CNT
591 591 1 -0.000000 -6.779741 35.612698 # CA CNT
592 592 1 1.409587 -6.631588 35.612698 # CA CNT
593 593 1 2.095055 -6.447917 34.384674 # CA CNT
594 594 1 3.389870 -5.871428 34.384674 # CA CNT
595 595 1 3.985032 -5.484926 35.612698 # CA CNT
596 596 1 5.038330 -4.536532 35.612698 # CA CNT
597 597 1 5.484926 -3.985032 34.384674 # CA CNT
598 598 1 6.193602 -2.757569 34.384674 # CA CNT
599 599 1 6.447917 -2.095055 35.612698 # CA CNT
600 600 1 6.742601 -0.708676 35.612698 # CA CNT
601 601 1 6.779741 0.000000 36.840721 # CA CNT
602 602 1 6.631588 1.409587 36.840721 # CA CNT
603 603 1 6.447917 2.095055 38.068745 # CA CNT
604 604 1 5.871428 3.389870 38.068745 # CA CNT
605 605 1 5.484926 3.985032 36.840721 # CA CNT
606 606 1 4.536532 5.038330 36.840721 # CA CNT
607 607 1 3.985032 5.484926 38.068745 # CA CNT
608 608 1 2.757569 6.193602 38.068745 # CA CNT
609 609 1 2.095055 6.447917 36.840721 # CA CNT
610 610 1 0.708676 6.742601 36.840721 # CA CNT
611 611 1 0.000000 6.779741 38.068745 # CA CNT
612 612 1 -1.409587 6.631588 38.068745 # CA CNT
613 613 1 -2.095055 6.447917 36.840721 # CA CNT
614 614 1 -3.389870 5.871428 36.840721 # CA CNT
615 615 1 -3.985032 5.484926 38.068745 # CA CNT
616 616 1 -5.038330 4.536532 38.068745 # CA CNT
617 617 1 -5.484926 3.985032 36.840721 # CA CNT
618 618 1 -6.193602 2.757569 36.840721 # CA CNT
619 619 1 -6.447917 2.095055 38.068745 # CA CNT
620 620 1 -6.742601 0.708676 38.068745 # CA CNT
621 621 1 -6.779741 0.000000 36.840721 # CA CNT
622 622 1 -6.631588 -1.409587 36.840721 # CA CNT
623 623 1 -6.447917 -2.095055 38.068745 # CA CNT
624 624 1 -5.871428 -3.389870 38.068745 # CA CNT
625 625 1 -5.484926 -3.985032 36.840721 # CA CNT
626 626 1 -4.536532 -5.038330 36.840721 # CA CNT
627 627 1 -3.985032 -5.484926 38.068745 # CA CNT