LAMMPS (7 Feb 2024 - Update 1)
units		metal
atom_style	charge
boundary        p p p

read_data       data.grafeno
Reading data file ...
  orthogonal box = (-2.143055 -0.834999 -20) to (99.156948 50.465 20)
  4 by 4 by 2 MPI processor grid
  reading atoms ...
  1968 atoms
  read_data CPU = 0.009 seconds
pair_style airebo 3.0
pair_coeff      * * CHrcc2.airebo C
Reading airebo potential file CHrcc2.airebo with DATE: 2011-10-25

neighbor	2.0 bin
neigh_modify	delay 0 every 1 check yes page 500000 one 50000

variable       tiempo equal step

fix             7 all balance 2000 1.1 shift z 10 1.1

variable        velocidade equal 1e-3
variable        timestep_var equal 0.0001
variable        temperature equal 10
variable        termalizar_var          equal 200000
variable        termalizar_var_npt      equal 200000
variable        taxa_termalizar_var     equal 200

thermo		${taxa_termalizar_var}
thermo		200
thermo_style    custom step lx ly lz pxx pyy pzz  ke pe press temp

timestep        ${timestep_var}
timestep        0.0001
variable        dampingTemp_var  equal  100*${timestep_var}
variable        dampingTemp_var  equal  100*0.0001
variable        dampingPress_var equal 1000*${timestep_var}
variable        dampingPress_var equal 1000*0.0001

variable        cfac equal 1.0e-4

variable        p1  equal -pxx*${cfac}
variable        p1  equal -pxx*0.0001
variable        p2  equal -pyy*${cfac}
variable        p2  equal -pyy*0.0001
variable        p3  equal -pzz*${cfac}
variable        p3  equal -pzz*0.0001
variable        p12 equal -pxy*${cfac}
variable        p12 equal -pxy*0.0001
variable        p13 equal -pxz*${cfac}
variable        p13 equal -pxz*0.0001
variable        p23 equal -pyz*${cfac}
variable        p23 equal -pyz*0.0001


fix             99 all box/relax aniso 0.0 dilate partial
minimize        1.0e-10 1.0e-8 1000 200000
Neighbor list info ...
  update: every = 1 steps, delay = 0 steps, check = yes
  max neighbors/atom: 50000, page size: 500000
  master list distance cutoff = 12.2
  ghost atom cutoff = 12.2
  binsize = 6.1, bins = 17 9 7
  1 neighbor lists, perpetual/occasional/extra = 1 0 0
  (1) pair airebo, perpetual
      attributes: full, newton on, ghost
      pair build: full/bin/ghost
      stencil: full/ghost/bin/3d
      bin: standard
WARNING: Energy due to 3 extra global DOFs will be included in minimizer energies
 (../min.cpp:219)
Per MPI rank memory allocation (min/avg/max) = 8.143 | 8.204 | 8.265 Mbytes
   Step           Lx             Ly             Lz            Pxx            Pyy            Pzz           KinEng         PotEng         Press           Temp     
         0   101.3          51.299999      40            -16153.847     -16848.171      0              0             -14490.354     -11000.673      0            
       200   99.647314      50.407243      40             13.860585      13.494064      0              0             -14528.706      9.1182164      0            
       400   99.573976      50.36155       40            -44.411351     -44.374108      0              0             -14545.854     -29.595153      0            
       600   99.535625      50.339558      40            -42.922001     -43.065532      0              0             -14554.022     -28.662511      0            
       800   99.490108      50.319131      40             75.628878      76.314139      0              0             -14560.615      50.647672      0            
      1000   99.456326      50.309235      40             69.429699      70.265801      0              0             -14566.416      46.565167      0            
Loop time of 1.60704 on 32 procs for 1000 steps with 1968 atoms

99.5% CPU use with 32 MPI tasks x no OpenMP threads

Minimization stats:
  Stopping criterion = max iterations
  Energy initial, next-to-last, final = 
     -14490.3535347789  -14566.3919005379  -14566.4156227825
  Force two-norm initial, final = 3028.5212 30.450617
  Force max component initial, final = 2185.8946 8.9504198
  Final line search alpha, max atom move = 2.6029294e-05 0.00023297311
  Iterations, force evaluations = 1000 1000

MPI task timing breakdown:
Section |  min time  |  avg time  |  max time  |%varavg| %total
---------------------------------------------------------------
Pair    | 0.039363   | 0.51439    | 1.4807     |  68.5 | 32.01
Neigh   | 0.0016993  | 0.0020382  | 0.0031145  |   0.8 |  0.13
Comm    | 0.028316   | 0.26776    | 0.68096    |  53.2 | 16.66
Output  | 0.00035633 | 0.00036381 | 0.00039023 |   0.0 |  0.02
Modify  | 0          | 0          | 0          |   0.0 |  0.00
Other   |            | 0.8225     |            |       | 51.18

Nlocal:           61.5 ave         126 max           0 min
Histogram: 16 0 0 0 0 0 0 0 0 16
Nghost:          667.5 ave         738 max         600 min
Histogram: 16 0 0 0 0 0 0 0 8 8
Neighs:              0 ave           0 max           0 min
Histogram: 32 0 0 0 0 0 0 0 0 0
FullNghs:      11253.4 ave       23436 max           0 min
Histogram: 16 0 0 0 0 0 0 0 0 16

Total # of neighbors = 360108
Ave neighs/atom = 182.98171
Neighbor list builds = 2
Dangerous builds = 0
unfix           99

velocity        all create ${temperature} 245789 rot yes mom yes
velocity        all create 10 245789 rot yes mom yes
restart         2000  restarteq1   restarteq2
dump            2 all custom 2000 f_npt.lammpstrj id  type  x y z
fix             1 all npt temp ${temperature} ${temperature} ${dampingTemp_var} x 0.0 0.0 ${dampingPress_var} y 0.0 0.0 ${dampingPress_var}
fix             1 all npt temp 10 ${temperature} ${dampingTemp_var} x 0.0 0.0 ${dampingPress_var} y 0.0 0.0 ${dampingPress_var}
fix             1 all npt temp 10 10 ${dampingTemp_var} x 0.0 0.0 ${dampingPress_var} y 0.0 0.0 ${dampingPress_var}
fix             1 all npt temp 10 10 0.01 x 0.0 0.0 ${dampingPress_var} y 0.0 0.0 ${dampingPress_var}
fix             1 all npt temp 10 10 0.01 x 0.0 0.0 0.1 y 0.0 0.0 ${dampingPress_var}
fix             1 all npt temp 10 10 0.01 x 0.0 0.0 0.1 y 0.0 0.0 0.1
run             ${termalizar_var_npt}
run             200000
Per MPI rank memory allocation (min/avg/max) = 7.176 | 7.177 | 7.179 Mbytes
   Step           Lx             Ly             Lz            Pxx            Pyy            Pzz           KinEng         PotEng         Press           Temp     
      1000   99.456326      50.309235      40             82.706915      83.497349      14.198249      2.5425471     -14566.416      60.134171      10           
      1200   99.297802      50.279551      40             81.030997      89.209934     -5.1716455      12.224496     -14595.684      55.023095      48.079723    
      1400   99.248264      50.275303      40             73.337946      87.839424     -0.28124163     6.1709895     -14605.246      53.632043      24.270896    
      1600   99.224168      50.276494      40             64.098725      79.12261       0.30859319     3.7788658     -14609.3        47.843309      14.862521    
      1800   99.210518      50.27858       40             52.826789      62.359803     -0.33599316     2.847419      -14611.489      38.283533      11.199081    
      2000   99.203611      50.280495      40             37.460503      37.385262      0.25319651     2.5777363     -14612.82       25.032987      10.138402    
      2200   99.204781      50.280846      40             14.697755      4.2836298     -0.097216056    2.4161916     -14613.434      6.2947229      9.5030359    
      2400   99.210529      50.280938      40            -18.510029     -37.845376      0.082775377    2.7959739     -14613.745     -18.757543      10.996744    
      2600   99.216378      50.281632      40            -63.716194     -89.191911      0.074064562    2.4351669     -14613.953     -50.94468       9.5776672    
      2800   99.218821      50.285167      40            -116.4177      -146.39296     -0.095952394    2.6226546     -14614.13      -87.635538      10.315068    
      3000   99.21558       50.290791      40            -164.46923     -197.66918      0.12512379     2.5191039     -14614.35      -120.67109      9.9077966    
      3200   99.211573      50.294807      40            -192.52568     -225.30827     -0.052052731    2.5090681     -14614.578     -139.29534      9.8683251    
      3400   99.213236      50.293723      40            -190.19403     -216.05504     -0.020505228    2.4032237     -14614.427     -135.42319      9.4520322    
      3600   99.220592      50.28943       40            -159.53909     -171.94968      0.21343244     2.1268398     -14613.208     -110.42511      8.3649968    
      3800   99.228756      50.283974      40            -115.09836     -114.3224      -0.010115241    2.4064716     -14611.916     -76.476961      9.4648067    
      4000   99.231379      50.282135      40            -75.365256     -66.851968      0.025412817    2.0475539     -14610.381     -47.39727       8.0531604    
      4200   99.23476       50.279931      40            -47.025232     -35.080654      0.29193487     2.5285743     -14609.528     -27.271317      9.9450442    
      4400   99.231178      50.279666      40            -24.500657     -14.154978     -0.42997828     3.0663197     -14609.597     -13.028538      12.060031    
      4600   99.22292       50.279298      40            -3.181872       1.5418347     -0.14300561     2.7422746     -14610.576     -0.59434765     10.785541    
      4800   99.221315      50.277252      40             17.634079      15.431544     -0.044878917    2.5983248     -14611.064      11.006914      10.219377    
      5000   99.219569      50.275155      40             37.214644      29.40025      -0.23217399     2.6768982     -14611.664      22.127573      10.528412    
      5200   99.218833      50.272452      40             55.000668      43.964919      0.13563127     2.6870617     -14612.334      33.033739      10.568385    
      5400   99.215559      50.270945      40             70.652985      58.976807     -0.11841681     2.5585831     -14613.018      43.170458      10.063071    
      5600   99.203375      50.273399      40             84.330543      73.228091     -0.11054245     2.6268794     -14614.048      52.482697      10.331684    
      5800   99.187514      50.278261      40             95.496497      85.089717     -0.0024789457   2.4719971     -14614.899      60.194578      9.7225227    
      6000   99.183603      50.279528      40             102.69157      92.359364     -0.10963409     2.3856729     -14614.905      64.980432      9.3830038    
      6200   99.184933      50.280266      40             102.47597      93.333268      0.18852027     2.668497      -14614.422      65.332587      10.495369    
      6400   99.195861      50.276669      40             90.975066      85.918516      0.029668095    2.426808      -14613.922      58.974417      9.544791     
      6600   99.206747      50.275012      40             64.883638      68.659187      0.08510361     2.3222031     -14613.159      44.542643      9.1333732    
      6800   99.218048      50.274216      40             24.646947      41.305862      0.42722121     2.659198      -14612.5        22.126677      10.458796    
      7000   99.221866      50.277847      40            -22.828906      3.7908303      0.11698075     2.568329      -14611.737     -6.3070317      10.101402    
      7200   99.226143      50.28124       40            -66.43301      -41.684807      0.24942321     2.4119972     -14611.074     -35.956131      9.486539     
      7400   99.236816      50.281298      40            -98.57953      -87.369257      0.44584003     2.3098591     -14610.179     -61.834316      9.0848235    
      7600   99.257059      50.275489      40            -118.00883     -121.40163     -0.0023990446   2.3113366     -14609.196     -79.804289      9.0906347    
      7800   99.270399      50.270081      40            -125.64418     -137.53334      0.17465554     2.8642677     -14609.05      -87.667619      11.265348    
      8000   99.25984       50.271458      40            -122.12993     -136.61661     -0.39404148     3.1043831     -14610.479     -86.380196      12.209737    
      8200   99.230518      50.279335      40            -109.26599     -123.37189     -0.88682188     3.0231887     -14612.701     -77.841564      11.890394    
      8400   99.209109      50.285158      40            -90.51396      -102.4249      -0.52548301     2.4811237     -14613.874     -64.488113      9.7584179    
      8600   99.201067      50.28629       40            -69.530947     -77.77645      -0.53146845     2.5217047     -14614.287     -49.279622      9.9180256    
      8800   99.20037       50.284812      40            -49.063144     -52.768366     -0.40765005     2.5298031     -14614.303     -34.07972       9.9498774    
      9000   99.204549      50.280618      40            -30.097081     -29.353128     -0.069783895    2.4915364     -14614.455     -19.839998      9.7993718    
      9200   99.211434      50.277055      40            -12.95012      -9.2394495      0.19695713     2.4401683     -14613.913     -7.3308707      9.5973376    
      9400   99.210852      50.276549      40             2.1558634      7.4793094      0.38737254     2.5534234     -14613.768      3.3408485      10.042777    
      9600   99.204293      50.279347      40             14.896469      20.357383      0.60245211     2.485682      -14613.559      11.952101      9.7763461    
      9800   99.203553      50.280095      40             24.132136      29.919096      0.67215804     2.4943842     -14613.061      18.24113       9.8105724    
     10000   99.213051      50.276525      40             29.605741      35.030469      1.1546895      2.1954673     -14612.228      21.9303        8.6349133    
     10200   99.234694      50.268202      40             31.216061      35.395746      2.2172204      2.1742308     -14610.909      22.943009      8.5513888    
     10400   99.250436      50.26258       40             29.799811      31.758633      3.4998671      2.1834824     -14609.452      21.686104      8.5877758    
     10600   99.236605      50.267481      40             27.000906      25.666259      3.6541632      3.3734627     -14609.625      18.773776      13.268044    
     10800   99.20547       50.276368      40             23.483062      19.613667     -1.404181       2.7203635     -14611.214      13.897516      10.699364    
     11000   99.193585      50.278535      40             18.979403      14.801526     -2.99189        2.5247961     -14612.265      10.263013      9.9301845    
     11200   99.188715      50.278779      40             14.004261      10.676105     -3.2622534      2.5547162     -14613.136      7.1393708      10.047862    
     11400   99.191918      50.276279      40             8.516438       7.3107268     -3.2561283      2.3958202     -14613.694      4.1903455      9.4229141    
     11600   99.195543      50.275192      40             3.308603       3.6202952     -2.258606       2.4045373     -14613.911      1.5567641      9.457199     
     11800   99.197441      50.276295      40            -1.7090045     -0.86711576    -1.1667855      2.8336949     -14613.87      -1.2476352      11.145103    
     12000   99.193782      50.279595      40            -6.9913697     -6.2968717     -0.95267276     2.3607958     -14613.944     -4.7469714      9.2851609    
     12200   99.19048       50.283194      40            -13.381449     -12.910278      0.5990498      2.5803854     -14614.11      -8.5642257      10.14882     
     12400   99.191056      50.285433      40            -21.744751     -20.920064      1.5083421      2.3650637     -14613.899     -13.718824      9.3019465    
     12600   99.207643      50.280558      40            -33.251611     -29.593412      3.3350043      2.2900719     -14613.244     -19.836673      9.0069991    
     12800   99.226725      50.274304      40            -46.236243     -38.550805      7.0027046      2.6251053     -14612.458     -25.928114      10.324707    
     13000   99.236076      50.271034      40            -56.448449     -47.200836      8.8741677      2.5883611     -14611.491     -31.591706      10.18019     
     13200   99.221804      50.275654      40            -59.41469      -55.144326      5.858886       2.2974891     -14611.129     -36.233377      9.0361714    
     13400   99.203405      50.280475      40            -55.241935     -59.777627      2.9158901      2.3792507     -14610.983     -37.367891      9.3577451    
     13600   99.186035      50.282075      40            -47.109583     -57.148433     -1.736014       2.9471819     -14611.668     -35.331343      11.591455    
     13800   99.180529      50.277177      40            -35.78219      -46.314116     -6.3350807      2.8152522     -14612.718     -29.477129      11.072567    
     14000   99.180213      50.272877      40            -19.019945     -29.182927     -7.3794959      2.5461209     -14613.05      -18.527456      10.014056    
     14200   99.182832      50.269656      40             4.2600123     -6.3664291     -7.2318036      2.4512934     -14612.878     -3.1127401      9.6410935    
     14400   99.174082      50.271591      40             33.697751      22.281962     -5.896948       2.6189775     -14613.329      16.694255      10.300606    
     14600   99.166272      50.273795      40             66.670828      56.62872      -4.8262624      2.5239184     -14613.721      39.491095      9.9267324    
     14800   99.161458      50.275301      40             100.64112      93.857319     -3.0349089      2.4417416     -14614.043      63.821176      9.6035258    
     15000   99.165917      50.274112      40             131.22869      128.90262      0.17435357     2.5737844     -14613.963      86.768555      10.122858    
     15200   99.181851      50.26928       40             152.80662      155.89983      4.7200259      2.3687135     -14613.309      104.47549      9.3163014    
     15400   99.19464       50.265494      40             160.49991      169.92259      9.3872662      2.5969947     -14613.037      113.26992      10.214146    
     15600   99.193898      50.267869      40             151.83137      167.65223      11.07819       2.6118603     -14612.771      110.18726      10.272614    
     15800   99.193784      50.268802      40             129.71913      149.19389      10.725798      2.4727702     -14612.438      96.54627       9.7255633    
     16000   99.187445      50.271339      40             100.30693      117.36551      10.520563      2.6472116     -14612.049      76.064335      10.411652    
     16200   99.176813      50.272656      40             69.39558       79.650406      3.1978552      2.6250365     -14612.393      50.747947      10.324436    
     16400   99.17045       50.272042      40             39.967904      43.533907     -2.9233873      2.4270502     -14612.709      26.859474      9.5457433    
     16600   99.171577      50.268875      40             14.104796      13.693034     -5.9601538      2.4761945     -14612.743      7.2792255      9.7390314    
     16800   99.171348      50.267198      40            -6.8520348     -9.3284183     -8.6856792      2.6929095     -14612.729     -8.2887107      10.591385    
     17000   99.164718      50.269213      40            -22.051848     -27.247316     -10.226249      2.4584404     -14612.988     -19.841804      9.669203     
     17200   99.153578      50.27525       40            -32.832779     -40.979546     -10.774276      2.6583281     -14613.549     -28.195533      10.455374    
     17400   99.157406      50.276777      40            -41.360215     -50.507468     -8.692731       2.4608576     -14613.587     -33.520138      9.6787103    
     17600   99.172845      50.275485      40            -48.16831      -56.527418     -3.5778014      2.5999645     -14613.343     -36.091176      10.225827    
     17800   99.18871       50.27457       40            -53.171018     -59.819057      2.4579596      2.4476785     -14613.031     -36.844038      9.6268757    
     18000   99.198573      50.275347      40            -56.050182     -60.988052      7.2050228      2.4609432     -14612.992     -36.611071      9.6790468    
     18200   99.198625      50.27878       40            -56.39425      -60.820667      10.557065      2.4907461     -14612.955     -35.552617      9.7962636    
     18400   99.194879      50.282402      40            -55.89356      -59.325314      15.199766      2.6772023     -14612.573     -33.339703      10.529608    
     18600   99.189101      50.28255       40            -56.24022      -55.967063      11.808271      2.506591      -14612.635     -33.466338      9.8585825    
     18800   99.18363       50.279606      40            -56.41731      -50.074684      6.1147166      2.6208324     -14612.992     -33.459092      10.307901    
     19000   99.176831      50.276365      40            -50.700707     -37.175021      0.91013992     2.3195606     -14613.003     -28.988529      9.12298      
     19200   99.170611      50.271826      40            -31.180531     -11.127726     -3.2697215      2.5353528     -14612.855     -15.192659      9.9717046    
     19400   99.159612      50.268352      40             4.4443341      27.611159     -7.4827177      2.5575655     -14612.799      8.190925       10.059068    
     19600   99.145383      50.26689       40             48.908741      72.118758     -11.706454      2.5985557     -14613.148      36.440348      10.220285    
     19800   99.136122      50.266372      40             91.275283      112.99813     -12.811335      2.4042767     -14613.359      63.820694      9.4561739    
     20000   99.140547      50.264496      40             122.76945      141.01031     -9.4849245      2.8282357     -14613.291      84.764943      11.123632    
     20200   99.155118      50.261599      40             139.4858       151.61436     -4.7378672      2.4443487     -14612.971      95.454095      9.6137795    
     20400   99.170248      50.260481      40             142.00284      146.68453      2.024363       2.8121339     -14613.036      96.903912      11.060302    
     20600   99.177134      50.263818      40             133.55893      131.82772      5.4813276      2.4370803     -14612.986      90.289326      9.5851925    
     20800   99.181764      50.268194      40             118.49093      112.10923      11.853104      2.5668357     -14612.649      80.817753      10.095529    
     21000   99.174681      50.275545      40             100.62341      90.625585      13.108044      2.5378972     -14612.504      68.119012      9.981712     
     21200   99.169441      50.278208      40             81.137936      69.318837      9.5928306      2.5545264     -14612.801      53.349868      10.047116    
     21400   99.172984      50.274432      40             60.353162      49.411202      4.6703305      2.478784      -14613.12       38.144898      9.7492157    
     21600   99.17466       50.27124       40             38.7819        30.849179      1.5572722      2.486114      -14613.127      23.729451      9.7780453    
     21800   99.172413      50.269775      40             17.483596      12.799437     -2.3016992      2.4279167     -14612.931      9.3271113      9.5491514    
     22000   99.158555      50.273181      40            -2.5935474     -5.5484266     -5.7392284      2.86517       -14613.406     -4.6270675      11.268897    
     22200   99.146783      50.277477      40            -21.755847     -24.922061     -9.4198143      2.5729442     -14613.619     -18.699241      10.119554    
     22400   99.150897      50.277495      40            -42.048438     -44.179478     -8.8400121      2.6119927     -14613.403     -31.689309      10.273134    
     22600   99.167873      50.273481      40            -65.054217     -63.090852     -6.9733902      2.5489012     -14613.135     -45.039486      10.024991    
     22800   99.185852      50.270942      40            -91.436471     -83.06487      -2.7590984      2.641838      -14612.912     -59.086813      10.390518    
     23000   99.20063       50.270399      40            -120.67156     -106.0469       0.53930512     2.4766169     -14612.855     -75.393051      9.7406926    
     23200   99.203641      50.276426      40            -150.5348      -134.17028      6.014121       2.5342059     -14612.553     -92.896989      9.9671936    
     23400   99.202176      50.283011      40            -177.85006     -162.69738      9.9247735      2.541059      -14612.33      -110.20755      9.9941475    
     23600   99.198968      50.286658      40            -193.8778      -180.84616      10.358216      2.5466396     -14612.33      -121.45525      10.016096    
     23800   99.193977      50.285869      40            -186.75315     -175.1149       6.3398927      2.4934581     -14612.842     -118.50939      9.8069299    
     24000   99.192959      50.279678      40            -151.02548     -141.32502      3.4227344      2.6197696     -14613.204     -96.309253      10.303721    
     24200   99.18785       50.273976      40            -93.767051     -91.354643      1.0268442      2.5398908     -14613.132     -61.36495       9.9895526    
     24400   99.171544      50.273221      40            -35.153515     -41.615781     -2.0966999      2.6406096     -14613.12      -26.288665      10.385686    
     24600   99.148662      50.276879      40             7.0240752     -3.68617       -6.7763076      2.3170246     -14613.402     -1.1461341      9.1130056    
     24800   99.136766      50.279052      40             30.770062      20.494596     -7.9538351      2.5447236     -14613.465      14.436941      10.008561    
     25000   99.143226      50.275051      40             44.64468       36.247587     -6.6548837      2.6093791     -14613.305      24.745794      10.262855    
     25200   99.158831      50.268324      40             55.72742       48.822736     -4.6883069      2.5679974     -14613.158      33.287283      10.100098    
     25400   99.168864      50.265765      40             66.439565      59.05144      -0.9010469      2.4998027     -14612.993      41.529986      9.8318838    
     25600   99.171756      50.266939      40             75.339901      67.914686      3.3169511      2.5535654     -14612.883      48.857179      10.043336    
     25800   99.16839       50.271344      40             81.464993      74.633169      6.9080481      2.4599971     -14612.452      54.335403      9.6753257    
     26000   99.165472      50.273325      40             84.064863      79.408155      8.6520891      2.6452423     -14612.303      57.375036      10.403907    
     26200   99.166527      50.271381      40             82.829193      81.170763      6.2800644      2.6581752     -14612.368      56.760007      10.454773    
     26400   99.172207      50.265936      40             77.44233       79.607045      0.71333316     2.3884876     -14612.582      52.587569      9.3940743    
     26600   99.174899      50.262785      40             67.344645      73.680729     -0.91188209     2.6334261     -14612.775      46.704497      10.357433    
     26800   99.170043      50.264377      40             51.679542      62.092932     -2.605916       2.7583641     -14612.855      37.055519      10.848822    
     27000   99.160517      50.26889       40             29.914305      43.140968     -5.4152299      2.6742727     -14613.297      22.546681      10.518085    
     27200   99.152048      50.27538       40             1.7318108      15.304774     -5.5704376      2.4497341     -14613.523      3.8220491      9.6349607    
     27400   99.153301      50.279863      40            -32.917718     -20.265791     -4.1693249      2.5244789     -14613.463     -19.117611      9.9289366    
     27600   99.16176       50.281613      40            -71.639338     -60.066553     -1.4588727      2.6961863     -14613.588     -44.388254      10.604273    
     27800   99.177555      50.280338      40            -110.33001     -98.144443      0.85691321     2.62752       -14613.545     -69.205846      10.334204    
     28000   99.195692      50.277481      40            -141.34308     -128.51443      4.2029287      2.3112003     -14613.142     -88.551527      9.0900984    
     28200   99.199731      50.278949      40            -155.79374     -148.19052      6.9842606      2.4786069     -14613.009     -98.999998      9.7485192    
     28400   99.193436      50.282758      40            -151.63103     -154.15104      8.6461704      2.4176391     -14612.599     -99.045302      9.508729     
     28600   99.181685      50.285157      40            -133.8327      -144.41835      7.2411413      2.6362746     -14612.51      -90.336636      10.368636    
     28800   99.177383      50.280721      40            -110.21219     -121.54677      3.043941       2.6963822     -14612.636     -76.238339      10.605044    
     29000   99.178874      50.273277      40            -85.495767     -93.208788     -1.5721237      2.4145414     -14612.468     -60.092226      9.4965456    
     29200   99.181639      50.265232      40            -61.855407     -66.216782     -4.3183902      2.497941      -14612.404     -44.130193      9.8245617    
     29400   99.169832      50.265032      40            -39.916862     -44.629078     -7.9409874      2.6590574     -14612.695     -30.828976      10.458242    
     29600   99.152061      50.269993      40            -20.805381     -27.208872     -9.9960086      2.59643       -14613.073     -19.336754      10.211925    
     29800   99.139891      50.275489      40            -5.222523      -11.610675     -8.9478839      2.5584416     -14613.18      -8.5936941      10.062514    
     30000   99.142552      50.276174      40             7.4490932      3.1836017     -6.639742       2.506611      -14613.135      1.3309843      9.8586611    
     30200   99.158333      50.271425      40             18.441167      17.929684     -3.0911864      2.5288409     -14613.303      11.093222      9.9460929    
     30400   99.172812      50.268345      40             29.720588      31.53001       1.1250754      2.4181898     -14613.316      20.791891      9.5108949    
     30600   99.182326      50.267554      40             41.628897      44.757682      6.762872       2.5228616     -14613.209      31.049817      9.922576     
     30800   99.179079      50.271613      40             54.603699      58.308699      9.4608339      2.3414739     -14613.036      40.791078      9.2091664    
     31000   99.168688      50.27656       40             69.339193      74.5462        12.723194      2.6087176     -14613.002      52.202862      10.260253    
     31200   99.158788      50.277685      40             89.265526      97.171885      10.835468      2.6216919     -14613.053      65.757626      10.311282    
     31400   99.158157      50.270949      40             118.56909      129.62337      7.8371644      2.6834003     -14613.157      85.34321       10.553985    
     31600   99.160483      50.261213      40             148.40761      161.04404      3.9648532      2.725131      -14613.183      104.47217      10.718114    
     31800   99.160861      50.25409       40             153.12443      165.60548     -1.3912264      2.5784232     -14612.956      105.77956      10.141103    
     32000   99.147971      50.256429      40             126.65443      138.35467     -7.8136879      2.4297338     -14612.99       85.731803      9.5562981    
     32200   99.130881      50.264778      40             85.414395      92.004158     -10.961666      2.2949824     -14612.851      55.485629      9.0263126    
     32400   99.122049      50.27178       40             43.487177      41.079606     -13.460693      2.4362279     -14612.719      23.70203       9.5818401    
     32600   99.129609      50.272848      40             6.2799183     -3.3213763     -13.162713      2.3183266     -14612.582     -3.4013903      9.1181268    
     32800   99.14865       50.269972      40            -24.814719     -36.291277     -9.6777901      2.5903719     -14612.813     -23.594595      10.188098    
     33000   99.174304      50.265663      40            -49.779726     -58.403646     -3.4204196      2.4642798     -14612.733     -37.201264      9.6921698    
     33200   99.18434       50.269067      40            -66.563064     -74.204843      3.1509396      2.7668931     -14612.948     -45.872322      10.882367    
     33400   99.186213      50.275781      40            -76.257245     -85.406009      9.2672272      2.6770847     -14612.842     -50.798675      10.529145    
     33600   99.179763      50.283573      40            -80.541358     -91.955336      11.104632      2.7074407     -14613.055     -53.797354      10.648537    
     33800   99.178728      50.285718      40            -82.225567     -92.33699       11.401736      2.6723572     -14613.185     -54.38694       10.510551    
     34000   99.183244      50.282417      40            -82.092342     -86.970996      9.565924       2.535621      -14613.248     -53.165805      9.9727596    
     34200   99.192005      50.274094      40            -79.488827     -77.453824      6.3902931      2.6032874     -14613.337     -50.184119      10.238896    
     34400   99.187121      50.270336      40            -72.134275     -66.899966      1.4977869      2.7098607     -14613.632     -45.845485      10.658055    
     34600   99.172254      50.272349      40            -60.336694     -56.235086     -2.8277727      2.4194637     -14613.438     -39.799851      9.5159054    
     34800   99.15235       50.277217      40            -45.864657     -43.541642     -5.2102433      2.4132567     -14613.215     -31.538848      9.4914929    
     35000   99.139001      50.27946       40            -30.371868     -26.722211     -8.7908467      2.3358964     -14613.052     -21.961642      9.1872296    
     35200   99.144895      50.273791      40            -13.424927     -4.0744317     -8.4843028      2.3771265     -14612.934     -8.6612205      9.3493903    
     35400   99.160688      50.264501      40             9.1092456      23.593215     -6.442416       2.4881126     -14612.902      8.7533481      9.7859057    
     35600   99.170221      50.259686      40             40.799975      55.908283     -2.9544924      2.5399724     -14612.677      31.251255      9.9898737    
     35800   99.170905      50.259673      40             81.583327      93.884753      1.0289782      2.4217778     -14612.317      58.832353      9.5250067    
     36000   99.160793      50.263928      40             127.19011      134.92667      4.8266404      2.7655051     -14612.369      88.98114       10.876908    
     36200   99.152855      50.266514      40             168.04914      171.56342      4.5128708      2.4319831     -14612.293      114.70848      9.5651449    
     36400   99.146817      50.268108      40             194.2359       192.38442      5.0048973      2.6091002     -14612.487      130.54174      10.261758    
     36600   99.149595      50.266057      40             198.76497      189.12334      3.1624003      2.5811303     -14612.67       130.35024      10.151751    
     36800   99.157621      50.26218       40             179.28192      164.89594     -0.0010199994   2.6748063     -14613.066      114.72561      10.520184    
     37000   99.166665      50.259359      40             142.82033      128.75411     -2.0709079      2.7051279     -14613.464      89.834513      10.639441    
     37200   99.166904      50.263083      40             101.47329      90.424727     -2.1932256      2.5053541     -14613.35       63.234931      9.8537178    
     37400   99.159154      50.270516      40             65.746911      56.917357     -2.4329774      2.5068127     -14613.409      40.077097      9.8594545    
     37600   99.152522      50.277512      40             38.69686       30.19506      -2.1400195      2.3304914     -14613.428      22.250633      9.1659717    
     37800   99.155861      50.279673      40             17.422559      9.3870313      0.79535769     2.4837579     -14613.478      9.2016494      9.7687784    
     38000   99.172847      50.274984      40            -2.0427895     -7.1078294      3.3796054      2.4304256     -14613.266     -1.9236711      9.5590191    
     38200   99.181625      50.273149      40            -20.365096     -22.014814      5.2097175      2.4324928     -14613.12      -12.390064      9.5671496    
     38400   99.186777      50.271988      40            -37.763529     -36.121771      6.0787433      2.3695372     -14612.729     -22.602186      9.3195413    
     38600   99.180986      50.274037      40            -53.427077     -49.914214      4.9244233      2.4037608     -14612.576     -32.805623      9.4541448    
     38800   99.174406      50.275037      40            -67.010832     -62.904059      3.3039743      2.4828431     -14612.356     -42.203639      9.7651805    
     39000   99.167978      50.274634      40            -79.066072     -74.079792     -0.081957008    2.5378222     -14612.276     -51.07594       9.981417     
     39200   99.164072      50.271537      40            -89.666766     -82.417474     -5.5727395      2.8327467     -14612.668     -59.218993      11.141374    
     39400   99.163455      50.26843       40            -98.021121     -88.137948     -9.2153015      2.7331934     -14612.942     -65.12479       10.749824    
     39600   99.168849      50.26535       40            -102.67862     -90.84358      -9.6625817      2.5857273     -14612.838     -67.728261      10.169831    
     39800   99.164708      50.26864       40            -100.24209     -91.199641     -9.2385268      2.5941493     -14612.83      -66.893419      10.202955    
     40000   99.156129      50.275278      40            -89.969366     -86.080751     -7.9171276      2.4981077     -14612.999     -61.322415      9.8252173    
     40200   99.153073      50.280367      40            -71.926415     -71.817711     -3.6835681      2.575612      -14613.214     -49.142565      10.130046    
     40400   99.160159      50.28038       40            -45.336205     -46.866535      1.3141672      2.4940263     -14613.304     -30.296191      9.8091649    
     40600   99.170026      50.277785      40            -10.195406     -12.977732      7.0398571      2.7197182     -14613.479     -5.3777602      10.696825    
     40800   99.180956      50.273178      40             31.219476      24.892293      10.373743      2.2794216     -14613.16       22.161837      8.9651106    
     41000   99.180849      50.270632      40             73.016278      61.512023      12.558173      2.6657009     -14613.361      49.028825      10.484372    
     41200   99.176479      50.268705      40             106.89646      91.897007      11.24076       2.4295419     -14613.133      70.011408      9.5555436    
     41400   99.163944      50.26906       40             127.11043      112.18533      9.1490945      2.5397614     -14612.989      82.81495       9.989044     
     41600   99.152009      50.267569      40             132.04947      119.83447      3.2090963      2.6459953     -14612.988      85.031013      10.406869    
     41800   99.144216      50.264236      40             123.70813      114.95705     -4.2618262      2.6370994     -14613.203      78.134452      10.371881    
     42000   99.142008      50.261294      40             106.17134      100.25252     -8.6209422      2.5013579     -14612.974      65.934306      9.8380005    
     42200   99.142544      50.258851      40             83.873853      81.205394     -11.266137      2.5712453     -14612.776      51.271037      10.112872    
     42400   99.138614      50.261033      40             62.172596      61.708643     -14.548666      2.3894784     -14612.6        36.444191      9.3979713    
     42600   99.13842       50.264096      40             44.072343      45.111786     -12.412315      2.5480998     -14612.708      25.590604      10.021839    
     42800   99.142276      50.267888      40             29.725957      31.517071     -8.6709805      2.6141343     -14612.849      17.524016      10.281557    
     43000   99.152997      50.27035       40             17.88378       20.369299     -2.6874813      2.6365029     -14612.833      11.855199      10.369534    
     43200   99.165633      50.272101      40             7.1177624      10.783643      2.5450008      2.5400073     -14612.915      6.8154688      9.990011     
     43400   99.178675      50.273729      40            -3.376317       1.2294732      8.7262614      2.4679304     -14612.726      2.1931392      9.7065278    
     43600   99.183819      50.276558      40            -13.472253     -8.9723363      11.427391      2.5335349     -14612.96      -3.6723994      9.9645545    
     43800   99.183872      50.279201      40            -23.423813     -20.245688      13.770905      2.6856623     -14613.101     -9.9661984      10.562882    
     44000   99.184254      50.278172      40            -33.84556      -31.510528      10.598525      2.6710841     -14613.296     -18.252521      10.505545    
     44200   99.18134       50.276218      40            -43.824381     -42.524262      5.8226204      2.7263001     -14613.632     -26.842007      10.722712    
     44400   99.177203      50.274491      40            -52.706008     -52.398157      1.9962425      2.5002255     -14613.606     -34.369307      9.8335468    
     44600   99.172926      50.272419      40            -59.367816     -60.168522     -1.1229787      2.5862921     -14613.431     -40.219772      10.172052    
     44800   99.166193      50.2705        40            -62.943299     -65.254065     -6.0062303      2.6889486     -14613.35      -44.734531      10.575807    
     45000   99.162087      50.268878      40            -63.14158      -67.134031     -10.741555      2.3422376     -14612.988     -47.005722      9.2121702    
     45200   99.153118      50.271766      40            -58.946047     -66.248648     -11.573341      2.3903947     -14612.769     -45.589345      9.4015752    
     45400   99.154167      50.272062      40            -51.774527     -60.485346     -9.9593789      2.3390191     -14612.521     -40.739751      9.1995115    
     45600   99.156831      50.273045      40            -40.287391     -49.796572     -6.1848878      2.6232911     -14612.571     -32.089617      10.317571    
     45800   99.166123      50.272331      40            -24.147453     -33.079761     -0.81872294     2.4578971     -14612.238     -19.348645      9.6670663    
     46000   99.171053      50.273168      40            -2.6896864     -9.7229068      3.8632347      2.6225884     -14612.354     -2.8497862      10.314808    
     46200   99.173859      50.27372       40             24.293804      20.187063      6.699642       2.4359994     -14612.322      17.06017       9.5809413    
     46400   99.170695      50.274254      40             55.091074      55.790331      7.634465       2.7136919     -14612.704      39.50529       10.673123    
     46600   99.167844      50.272477      40             87.297012      93.374514      4.9613254      2.6896581     -14613.069      61.877617      10.578597    
     46800   99.168573      50.268384      40             117.28457      128.10555      3.5932246      2.5017256     -14613.338      82.99445       9.8394465    
     47000   99.167832      50.26563       40             140.3245       154.52179      2.6453853      2.2503724     -14613.288      99.163889      8.8508585    
     47200   99.165242      50.263545      40             152.35307      168.25438      1.327105       2.6076889     -14613.533      107.31152      10.256207    
     47400   99.159097      50.263969      40             151.02105      167.4385      -1.8159871      2.6447113     -14613.802      105.54785      10.401818    
     47600   99.156355      50.265519      40             137.15356      152.10055     -1.9698091      2.704433      -14613.702      95.761436      10.636708    
     47800   99.15913       50.265914      40             113.26571      126.00356     -2.4013097      2.5194194     -14613.461      78.955987      9.9090376    
     48000   99.161341      50.267987      40             84.082894      93.301196     -1.9058478      2.389605      -14613.101      58.492748      9.398469     
     48200   99.164373      50.270246      40             54.061746      59.533498     -0.16985504     2.3193021     -14612.712      37.808463      9.1219632    
     48400   99.166913      50.272325      40             27.221116      28.921172      1.674274       2.4208228     -14612.395      19.272187      9.5212508    
     48600   99.170492      50.272803      40             5.7294165      4.2710696      3.0399483      2.3550163     -14612.07       4.3468115      9.2624297    
     48800   99.167967      50.273957      40            -9.7827008     -13.860524      2.8987669      2.6481192     -14612.088     -6.9148193      10.415222    
     49000   99.161347      50.275819      40            -20.14785      -26.793246     -1.5941656      2.4737894     -14612.171     -16.178421      9.7295716    
     49200   99.156327      50.276752      40            -27.307414     -35.236432     -3.2443098      2.552484      -14612.593     -21.929385      10.039083    
     49400   99.161471      50.27426       40            -33.10992      -39.823917     -3.5026526      2.5290918     -14612.807     -25.47883       9.9470798    
     49600   99.172559      50.269518      40            -38.055226     -41.80238      -2.8004397      2.5623522     -14612.898     -27.552682      10.077895    
     49800   99.181222      50.265354      40            -41.539734     -42.379137     -4.1167671      2.7043591     -14613.37      -29.345213      10.636417    
     50000   99.180663      50.267799      40            -42.795949     -43.293856     -2.1527007      2.6906877     -14613.485     -29.414169      10.582647    
     50200   99.173021      50.273937      40            -42.586958     -44.236158     -0.40406739     2.7263336     -14613.737     -29.075728      10.722844    
     50400   99.171152      50.2778        40            -43.037875     -44.608974      1.7409481      2.6044902     -14613.597     -28.6353        10.243626    
     50600   99.175901      50.278081      40            -45.696406     -45.042115      4.1367115      2.4261968     -14613.391     -28.86727       9.5423871    
     50800   99.184922      50.275146      40            -49.994713     -44.300304      6.8458447      2.4445899     -14613.148     -29.149724      9.6147281    
     51000   99.184632      50.274155      40            -46.245392     -35.729464      8.0152625      2.5672633     -14613.058     -24.653198      10.09721     
     51200   99.174434      50.274635      40            -24.827149     -11.463611      6.0718464      2.4566582     -14612.676     -10.072971      9.6621937    
     51400   99.157782      50.274595      40             10.535387      25.872405      0.90977858     2.5527876     -14612.524      12.43919       10.040277    
     51600   99.146778      50.271269      40             50.999051      67.036074     -4.3091762      2.4656297     -14612.348      37.90865       9.697479     
     51800   99.144417      50.265212      40             88.7914        104.02252     -6.9969924      2.3869877     -14612.437      61.938976      9.3881753    
     52000   99.147483      50.259387      40             118.95887      129.28613     -6.9510518      2.6623111     -14612.526      80.431317      10.47104     
     52200   99.152614      50.254515      40             137.08981      140.55565     -8.2512434      2.9004986     -14612.893      89.798074      11.407846    
     52400   99.156153      50.254494      40             141.83906      139.53214     -7.6432718      2.5507808     -14612.904      91.242643      10.032384    
     52600   99.153549      50.260273      40             135.24881      129.5822      -4.3234982      2.6381296     -14613.24       86.835837      10.375932    
     52800   99.151779      50.266906      40             121.384        113.82614     -1.3684497      2.559372      -14613.47       77.947231      10.066173    
     53000   99.155405      50.271773      40             103.81947      94.439386      2.5263183      2.6163896     -14613.479      66.928391      10.290427    
     53200   99.168626      50.271833      40             84.150191      73.830873      7.034567       2.4387029     -14613.26       55.00521       9.5915742    
     53400   99.180297      50.270845      40             63.109683      53.451147      11.032003      2.6375297     -14613.321      42.530945      10.373573    
     53600   99.188915      50.268925      40             41.043628      34.084485      12.172298      2.5111434     -14613.173      29.100137      9.8764875    
     53800   99.178039      50.273211      40             20.06035       14.799401      9.3199507      2.5111902     -14613.086      14.726567      9.8766715    
     54000   99.161555      50.277625      40             0.85452246    -4.2296584      3.3867528      2.4366527     -14613.053      0.0038722831   9.5835107    
     54200   99.152313      50.277895      40            -17.572804     -22.181606     -0.4841787      2.5340021     -14613.041     -13.412863      9.9663922    
     54400   99.155182      50.272707      40            -36.525766     -38.601792     -4.4313195      2.3196234     -14612.658     -26.519626      9.1232272    
     54600   99.159874      50.266652      40            -56.84797      -54.124425     -8.7372372      2.5194713     -14612.61      -39.903211      9.9092415    
     54800   99.163529      50.263011      40            -78.598862     -71.259577     -12.530085      2.4674432     -14612.591     -54.129508      9.7046119    
     55000   99.164986      50.264077      40            -102.90253     -91.810189     -12.077664      2.5334669     -14612.593     -68.930128      9.9642872    
     55200   99.163152      50.269554      40            -130.07464     -117.6334      -10.852383      2.4571696     -14612.743     -86.186807      9.6642049    
     55400   99.165031      50.276058      40            -159.31683     -145.42868     -7.3884319      2.4390909     -14612.857     -104.04465      9.5931005    
     55600   99.177886      50.278344      40            -184.25883     -165.83994     -1.0635955      2.5682919     -14612.982     -117.05412      10.101256    
     55800   99.196165      50.277007      40            -191.89079     -168.39912      7.3536975      2.7058732     -14613.013     -117.64541      10.642372    
     56000   99.205024      50.276065      40            -170.52675     -149.40099      11.556215      2.5662923     -14613.089     -102.79051      10.093392    
     56200   99.195353      50.278981      40            -122.99424     -113.01121      13.104216      2.6224193     -14613.116     -74.300412      10.314143    
     56400   99.176918      50.28211       40            -66.559058     -67.571511      8.8416916      2.3965481     -14613.121     -41.762959      9.4257766    
     56600   99.16149       50.281809      40            -17.175686     -23.277956      5.3622075      2.4491982     -14613.292     -11.697145      9.6328529    
     56800   99.155924      50.276801      40             19.307545      12.424584      2.9492537      2.5191267     -14613.265      11.560461      9.9078861    
     57000   99.155968      50.268757      40             45.392782      37.810498     -1.3789397      2.5965056     -14613.119      27.27478       10.212223    
     57200   99.154866      50.261827      40             64.811639      55.802563     -7.4063646      2.3874459     -14612.95       37.735946      9.3899772    
     57400   99.150734      50.259086      40             80.106975      69.36567      -11.334527      2.2561048     -14612.65       46.046039      8.8734043    
     57600   99.139055      50.262126      40             92.086097      80.615154     -11.767971      2.6961278     -14612.883      53.644426      10.604043    
     57800   99.137115      50.264318      40             100.74348      89.23313      -12.266321      2.2855781     -14612.574      59.236762      8.9893249    
     58000   99.144889      50.264895      40             105.57343      95.612912     -7.4671907      2.5405989     -14612.628      64.57305       9.9923378    
     58200   99.163509      50.263155      40             106.27076      98.389731      0.25831072     2.5719569     -14612.56       68.306267      10.115671    
     58400   99.177195      50.263865      40             101.73898      96.959254      7.592222       2.7101611     -14612.866      68.763485      10.659237    
     58600   99.184699      50.266215      40             90.68254       90.433656      11.505371      2.6254291     -14612.959      64.207189      10.32598     
     58800   99.178463      50.272446      40             73.672834      77.273719      10.665535      2.5971753     -14613.197      53.870696      10.214856    
     59000   99.173974      50.275655      40             50.65659       57.933695      8.768613       2.6943393     -14613.506      39.119632      10.597009    
     59200   99.170528      50.277678      40             22.77698       32.22761       6.8040701      2.4982443     -14613.495      20.602887      9.8257546    
     59400   99.17117       50.276419      40            -9.4004642      2.4396297      4.5506708      2.4566564     -14613.313     -0.8033879      9.6621865    
     59600   99.16987       50.274159      40            -43.776246     -29.690511     -1.3054669      2.5996742     -14613.398     -24.924075      10.224685    
     59800   99.171927      50.271143      40            -78.028337     -61.934648     -5.6443647      2.4033709     -14613.159     -48.535783      9.4526113    
     60000   99.168494      50.271601      40            -108.36679     -93.089736     -8.3089411      2.5279445     -14613.084     -69.921821      9.9425673    
     60200   99.162916      50.27418       40            -131.92397     -120.76202     -10.906634      2.4879629     -14613.05      -87.864209      9.7853172    
     60400   99.16444       50.27563       40            -147.09271     -140.77504     -11.138092      2.5333318     -14612.834     -99.668615      9.963756     
     60600   99.178411      50.273404      40            -152.69976     -148.94308     -7.1052454      2.5436676     -14612.517     -102.91603      10.004407    
     60800   99.193382      50.271865      40            -145.75547     -144.53316      0.43901568     2.5933857     -14612.252     -96.616538      10.199952    
     61000   99.205544      50.270232      40            -126.01048     -128.20122      5.8375633      2.4733228     -14612.131     -82.791378      9.7277366    
     61200   99.200881      50.273362      40            -96.530755     -104.01279      7.1251003      2.6682858     -14612.532     -64.472813      10.494539    
     61400   99.189916      50.27751       40            -65.203264     -76.444019      6.3263632      2.6617203     -14612.918     -45.106973      10.468716    
     61600   99.178113      50.281004      40            -37.779134     -49.770899      6.0795656      2.6507427     -14613.282     -27.156822      10.425541    
     61800   99.173638      50.280302      40            -16.625904     -25.844102      5.7875224      2.588054      -14613.409     -12.227494      10.178982    
     62000   99.17673       50.274726      40            -0.66818244    -5.7304882      3.4227741      2.4561516     -14613.329     -0.9919655      9.6602011    
     62200   99.17569       50.270091      40             12.640258      10.254743     -1.3017501      2.4442052     -14613.473      7.1977503      9.6132153    
     62400   99.16854       50.269636      40             24.138719      22.905053     -2.3598023      2.5965088     -14613.421      14.894656      10.212235    
     62600   99.157861      50.271178      40             34.230584      33.548758     -5.9128512      2.5331097     -14613.445      20.622164      9.9628822    
     62800   99.153164      50.271658      40             42.863649      43.409284     -7.9358724      2.4441565     -14613.206      26.112354      9.6130236    
     63000   99.154908      50.271265      40             50.567475      53.064451     -6.6001241      2.5895371     -14613.051      32.343934      10.184815    
     63200   99.166375      50.268571      40             58.022025      62.991746     -1.7514007      2.3884238     -14612.518      39.754123      9.3938233    
     63400   99.1769        50.266503      40             66.167355      73.471665      3.0814836      2.4180298     -14612.244      47.573501      9.5102658    
     63600   99.181546      50.266081      40             75.145604      84.473631      6.253782       2.5038127     -14612.088      55.291006      9.8476555    
     63800   99.176325      50.268391      40             83.550288      93.851866      4.668394       2.5607996     -14612.388      60.690183      10.071788    
     64000   99.173542      50.269248      40             86.417297      95.52954       3.7768748      2.6030789     -14612.788      61.907904      10.238076    
     64200   99.172033      50.270458      40             76.791504      81.87939       3.046166       2.4719039     -14612.963      53.905687      9.7221562    
     64400   99.174553      50.27036       40             51.651372      51.340256      1.7444588      2.5256202     -14613.076      34.912029      9.9334257    
     64600   99.177053      50.270296      40             15.042502      10.062988     -1.1743049      2.5308657     -14613.335      7.9770616      9.9540567    
     64800   99.181809      50.270297      40            -25.321261     -33.175846     -2.1441194      2.4076245     -14613.309     -20.213742      9.4693408    
     65000   99.176917      50.275039      40            -60.983002     -72.773633     -2.6971778      2.5180921     -14613.433     -45.484604      9.9038171    
     65200   99.172158      50.279181      40            -87.773055     -103.71796     -4.5024538      2.5600846     -14613.563     -65.331155      10.068976    
     65400   99.171549      50.282362      40            -104.88291     -123.92416     -4.1094846      2.5314791     -14613.321     -77.638852      9.9564689    
     65600   99.17778       50.282817      40            -113.93681     -132.53583     -1.0438885      2.4364212     -14613.014     -82.505512      9.5826002    
     65800   99.188495      50.280719      40            -116.59135     -130.55792      3.8843532      2.4877479     -14612.769     -81.088304      9.7844716    
     66000   99.19892       50.277005      40            -113.39961     -120.65542      6.4867956      2.4805495     -14612.504     -75.856078      9.7561595    
     66200   99.199813      50.275016      40            -104.38929     -105.89155      6.0593556      2.7009172     -14612.595     -68.073826      10.62288     
     66400   99.197014      50.273632      40            -90.472054     -88.381683      4.5121365      2.5995188     -14612.628     -58.113867      10.224074    
     66600   99.184804      50.276235      40            -72.593096     -69.492498      3.7419108      2.4789953     -14612.726     -46.114561      9.7500468    
     66800   99.17291       50.277223      40            -53.423106     -48.084425      2.2186151      2.6023269     -14612.942     -33.096305      10.235118    
     67000   99.170084      50.272998      40            -33.940717     -25.162275     -1.2598288      2.6288381     -14613.053     -20.12094       10.339388    
     67200   99.170085      50.267735      40            -13.483108     -1.9911875     -4.1948955      2.632822      -14613.217     -6.5563969      10.355057    
     67400   99.16972       50.263984      40             8.3257003      20.49702      -4.5430836      2.5773074     -14613.246      8.0932123      10.136715    
     67600   99.161298      50.264952      40             31.929722      42.692883     -7.4120105      2.3478986     -14613.244      22.403531      9.2344352    
     67800   99.151701      50.268144      40             57.295514      66.794412     -6.9516415      2.5071601     -14613.218      39.046095      9.8608208    
     68000   99.146617      50.27061       40             86.604299      95.153431     -4.2135566      2.5701646     -14613.135      59.181391      10.108622    
     68200   99.152576      50.268344      40             123.42935      130.30396      0.088783749    2.4929717     -14612.85       84.607365      9.8050169    
     68400   99.160932      50.26375       40             169.38983      170.71056      4.6988841      2.6258523     -14612.726      114.93309      10.327645    
     68600   99.162929      50.261037      40             214.56121      206.71984      5.8618777      2.7741499     -14612.696      142.38098      10.910909    
     68800   99.159761      50.261757      40             237.27713      221.22472      4.8009705      2.5556053     -14612.653      154.43427      10.051359    
     69000   99.153816      50.266022      40             222.14243      201.66438      5.4688104      2.6872832     -14612.883      143.09187      10.569257    
     69200   99.154666      50.269052      40             174.20653      152.70821      3.4321994      2.4030406     -14612.752      110.11565      9.4513124    
     69400   99.158394      50.270028      40             114.36524      95.187792      1.122744       2.5870847     -14612.957      70.22526       10.175169    
     69600   99.165673      50.268278      40             61.70469       47.41947      -1.1510051      2.7311726     -14613.234      35.991052      10.741876    
     69800   99.176958      50.264625      40             21.718393      13.982817     -2.4449396      2.5930798     -14613.17       11.085423      10.198749    
     70000   99.178845      50.264384      40            -7.8316837     -10.124803     -3.2754994      2.7236876     -14613.516     -7.0773286      10.712438    
     70200   99.172932      50.268882      40            -30.159721     -30.479498     -6.0553866      2.4113268     -14613.407     -22.231535      9.4839024    
     70400   99.166595      50.275303      40            -48.26871      -48.482352     -4.4425357      2.4262862     -14613.251     -33.731199      9.5427386    
     70600   99.171445      50.277238      40            -64.547257     -63.256153     -1.0538616      2.5507001     -14613.137     -42.952424      10.032067    
     70800   99.182178      50.276308      40            -79.613012     -74.397436      2.7093186      2.5614204     -14612.895     -50.43371       10.07423     
     71000   99.192777      50.274498      40            -92.346699     -82.413555      4.4277674      2.5510243     -14612.622     -56.777496      10.033342    
     71200   99.194856      50.275294      40            -100.54634     -88.332644      5.3237116      2.6205079     -14612.629     -61.185089      10.306625    
     71400   99.193353      50.276974      40            -103.54558     -91.765467      6.3210888      2.594119      -14612.751     -62.996651      10.202836    
     71600   99.187318      50.279265      40            -100.41122     -91.859554      6.7830764      2.5192229     -14612.91      -61.829233      9.9082648    
     71800   99.179603      50.280325      40            -91.116846     -86.853782      4.8565595      2.5353914     -14613.007     -57.70469       9.9718562    
     72000   99.174884      50.278103      40            -75.904874     -74.75448       2.3056331      2.5691504     -14613.2       -49.45124       10.104632    
     72200   99.171601      50.274392      40            -53.539761     -55.343314     -0.042673866    2.472219      -14613.274     -36.308583      9.7233951    
     72400   99.168301      50.269474      40            -23.404727     -28.561717     -1.8257131      2.7336721     -14613.46      -17.930719      10.751707    
     72600   99.160471      50.266455      40             13.816836      3.9784285     -6.5027424      2.4817698     -14613.431      3.764174       9.760959     
     72800   99.150506      50.266168      40             55.036665      39.928285     -8.6268015      2.4398968     -14613.188      28.779383      9.5962699    
     73000   99.143072      50.266783      40             94.602851      76.319828     -6.2611666      2.5382535     -14613.045      54.887171      9.9831131    
     73200   99.142077      50.266701      40             126.22832      107.2083      -3.9641808      2.4507264     -14612.693      76.490813      9.6388634    
     73400   99.14897       50.263679      40             143.58722      126.27147     -1.5567559      2.5249466     -14612.465      89.433981      9.9307761    
     73600   99.157975      50.261381      40             141.96073      128.42126     -1.2080178      2.4763168     -14612.208      89.724658      9.7395122    
     73800   99.16509       50.262022      40             122.6066       114.97686      0.55638532     2.3382888     -14612.116      79.37995       9.1966393    
     74000   99.16177       50.267988      40             95.533171      93.673616      3.6922571      2.6531363     -14612.56       64.299681      10.434954    
     74200   99.156835      50.274346      40             71.244768      72.318355      4.361148       2.5329053     -14612.663      49.308091      9.9620785    
     74400   99.156134      50.276505      40             52.708448      54.865451      3.5822036      2.6589894     -14612.984      37.052034      10.457975    
     74600   99.164059      50.273394      40             37.481133      41.236717      2.9028871      2.6520886     -14613.226      27.206912      10.430834    
     74800   99.175497      50.267704      40             23.806506      29.723475      1.6338124      2.5520587     -14613.359      18.387931      10.03741     
     75000   99.175229      50.266785      40             11.447366      18.18954      -1.6932394      2.4893532     -14613.555      9.3145555      9.7907851    
     75200   99.17185       50.268523      40            -0.59609915     6.3331703     -4.0515705      2.4176537     -14613.435      0.56183356     9.5087865    
     75400   99.165894      50.273006      40            -12.247061     -7.1685103     -2.988156       2.3881227     -14613.288     -7.4679091      9.3926392    
     75600   99.164829      50.275988      40            -24.983539     -21.664196     -0.95827665     2.5360629     -14613.234     -15.86867       9.9744975    
     75800   99.174001      50.274434      40            -39.791003     -37.494295      0.45628062     2.3863998     -14612.841     -25.609672      9.385863     
     76000   99.184357      50.272094      40            -56.849957     -54.835516      1.3812212      2.4611551     -14612.616     -36.768084      9.6798801    
     76200   99.18982       50.271962      40            -75.052524     -74.191592      1.1676821      2.4511671     -14612.531     -49.358811      9.640597     
     76400   99.1909        50.273957      40            -92.062878     -94.999583      3.548431       2.6761693     -14612.648     -61.171343      10.525545    
     76600   99.185396      50.278409      40            -104.8281      -113.89335      3.6288817      2.5166639     -14612.696     -71.69752       9.8981999    
     76800   99.176566      50.283109      40            -109.90282     -125.94461      3.8659594      2.6786796     -14612.78      -77.327157      10.535418    
     77000   99.174405      50.282634      40            -107.10779     -124.77914      2.8040106      2.6034706     -14612.914     -76.360972      10.239616    
     77200   99.175206      50.279056      40            -95.301385     -109.75225      2.1172289      2.5790258     -14613.138     -67.645467      10.143473    
     77400   99.178534      50.272235      40            -74.483331     -83.880506     -0.74351474     2.7024745     -14613.461     -53.035784      10.629005    
     77600   99.1773        50.267557      40            -45.67051      -52.428089     -4.2575147      2.4954097     -14613.487     -34.118705      9.8146058    
     77800   99.165236      50.269921      40            -12.374471     -18.804481     -4.5250632      2.616645      -14613.449     -11.901338      10.291432    
     78000   99.152852      50.274         40             19.997893      15.912382     -2.1941056      2.41282       -14613.306      11.238723      9.489775     
     78200   99.146794      50.275535      40             48.039592      49.587659     -0.24862765     2.3558831     -14613.037      32.459541      9.2658387    
     78400   99.150328      50.271987      40             70.491133      78.821739      0.85560869     2.5052683     -14612.865      50.05616       9.8533804    
     78600   99.163014      50.264024      40             87.751621      100.26193      1.2596056      2.5099008     -14612.635      63.091052      9.8716002    
     78800   99.173654      50.257324      40             99.622857      113.2245       1.6556168      2.6103907     -14612.547      71.500991      10.266833    
     79000   99.165216      50.260454      40             105.52251      118.36701      1.4722262      2.6327632     -14612.679      75.120581      10.354826    
     79200   99.149248      50.268046      40             105.25235      117.03292      1.758199       2.6697623     -14612.651      74.681159      10.500346    
     79400   99.13817       50.273324      40             100.25376      109.42498      1.0735066      2.6202824     -14612.695      70.250748      10.305738    
     79600   99.138253      50.272947      40             91.36354       96.620069      1.5878187      2.7009932     -14612.971      63.190476      10.623179    
     79800   99.152322      50.265872      40             78.10979       80.55958       0.24954657     2.5150597     -14613.043      52.972972      9.8918906    
     80000   99.159162      50.261958      40             61.652318      62.180511     -3.0980441      2.4671387     -14613.287      40.244928      9.7034143    
     80200   99.158725      50.263144      40             43.189129      42.303172     -3.9979992      2.5801782     -14613.375      27.164767      10.148006    
     80400   99.148558      50.270947      40             24.75183       20.058003     -3.2892372      2.5012339     -14613.275      13.840199      9.8375126    
     80600   99.141271      50.27794       40             6.5224216     -3.2720785     -1.0618538      2.4589469     -14613.181      0.72949641     9.6711951    
     80800   99.145002      50.279271      40            -12.648456     -26.232371     -0.39920935     2.3393146     -14612.852     -13.093345      9.200674     
     81000   99.155891      50.27593       40            -34.011774     -47.668206     -0.78026177     2.5124192     -14612.871     -27.486747      9.8815052    
     81200   99.171885      50.270167      40            -57.969573     -68.024848      0.14359058     2.583502      -14612.763     -41.950277      10.161079    
     81400   99.178315      50.269109      40            -82.968684     -89.505897      1.5095126      2.6365882     -14612.718     -56.988356      10.36987     
     81600   99.172968      50.274012      40            -107.07897     -113.19338      0.43344427     2.3731202     -14612.573     -73.279635      9.3336335    
     81800   99.163304      50.280402      40            -129.44347     -136.35301      1.3384687      2.6086972     -14612.704     -88.15267       10.260173    
     82000   99.159284      50.283869      40            -149.0343      -153.76821      0.71805207     2.5641778     -14612.792     -100.69482      10.085075    
     82200   99.165709      50.280781      40            -162.74393     -158.92561      0.23853276     2.5933131     -14613.008     -107.14367      10.199666    
     82400   99.179488      50.272398      40            -164.51191     -149.22212     -2.4031744      2.6880611     -14613.307     -105.37907      10.572316    
     82600   99.185852      50.267669      40            -148.15633     -127.26362     -4.09239        2.3960331     -14613.231     -93.17078       9.4237512    
     82800   99.177512      50.270536      40            -114.83258     -95.92202      -1.4919693      2.6757996     -14613.353     -70.748857      10.524091    
     83000   99.163246      50.276891      40            -73.225161     -57.986094      0.9834148      2.4751887     -14613.306     -43.40928       9.7350751    
     83200   99.15517       50.280147      40            -32.822606     -18.765832      4.4831151      2.3933893     -14613.077     -15.701774      9.4133531    
     83400   99.156925      50.277224      40             0.66185667     15.342848      5.2202696      2.5070313     -14613.133      7.0749914      9.8603142    
     83600   99.16641       50.270142      40             26.510607      39.495273      4.8939914      2.4105585     -14613.151      23.63329       9.4808806    
     83800   99.169455      50.26609       40             45.512155      53.977452      6.2090224      2.6781827     -14613.246      35.232876      10.533464    
     84000   99.163018      50.266305      40             58.40594       61.943986      5.3546042      2.5829239     -14613.198      41.90151       10.158805    
     84200   99.149387      50.269979      40             66.587598      65.723184      4.9788452      2.4848043     -14612.927      45.763209      9.772894     
     84400   99.133801      50.273546      40             71.222727      67.128772      3.3220015      2.5207752     -14612.861      47.2245        9.91437      
     84600   99.124935      50.27321       40             73.023538      66.980111      0.74894249     2.5506157     -14612.884      46.91753       10.031734    
     84800   99.126543      50.267141      40             72.47672       66.035061     -3.2122575      2.5760786     -14613.007      45.099841      10.131882    
     85000   99.130651      50.260762      40             70.575112      63.786907     -7.8304594      2.5077995     -14613.052      42.177187      9.8633358    
     85200   99.133201      50.257722      40             67.476781      60.520791     -8.9581041      2.454766      -14612.881      39.679823      9.6547514    
     85400   99.123917      50.26276       40             63.712595      55.404814     -7.2178082      2.3744516     -14612.807      37.299867      9.3388698    
     85600   99.113506      50.269765      40             58.794709      48.150637     -4.989758       2.3742094     -14612.636      33.985196      9.3379173    
     85800   99.111999      50.272241      40             50.782738      38.368009     -3.9264859      2.5847861     -14612.621      28.408087      10.166129    
     86000   99.122777      50.268969      40             35.282301      23.165318     -4.0734631      2.6209055     -14612.702      18.124719      10.308189    
     86200   99.139698      50.264864      40             4.4556375     -2.4030653     -2.4648276      2.5588681     -14612.607     -0.13741847     10.064192    
     86400   99.149508      50.265312      40            -44.450016     -41.107468     -1.9463402      2.5872234     -14612.758     -29.167941      10.175715    
     86600   99.14588       50.273556      40            -98.05583      -87.231198     -0.86027029     2.5094951     -14612.752     -62.049099      9.8700044    
     86800   99.139756      50.282064      40            -138.17038     -126.5466      -0.021034914    2.5900767     -14612.778     -88.246005      10.186937    
     87000   99.141853      50.284493      40            -159.88291     -148.2013       0.28314422     2.5866828     -14612.905     -102.60035      10.173589    
     87200   99.153959      50.280247      40            -167.97583     -152.83755      0.41347216     2.5753353     -14613.093     -106.79997      10.128958    
     87400   99.167288      50.273819      40            -166.79363     -146.87077     -1.0686753      2.6839571     -14613.37      -104.91102      10.556175    
     87600   99.175505      50.27088       40            -157.43368     -136.60685     -1.249937       2.5299798     -14613.252     -98.430156      9.9505721    
     87800   99.172391      50.273787      40            -140.56194     -124.44845      1.4449005      2.7174391     -14613.342     -87.855166      10.687862    
     88000   99.168116      50.277242      40            -119.44966     -109.09886      3.9790276      2.485145      -14613.23      -74.856498      9.774234     
     88200   99.166007      50.278346      40            -96.414627     -90.010938      5.7354175      2.5642277     -14613.19      -60.230049      10.085271    
     88400   99.166467      50.276339      40            -72.691426     -67.892314      5.1627381      2.6036842     -14613.325     -45.140334      10.240456    
     88600   99.171425      50.271722      40            -48.290904     -44.591262      5.6034182      2.4842646     -14613.255     -29.092916      9.7707714    
     88800   99.169117      50.269625      40            -22.661544     -22.345482      5.8066394      2.5458783     -14613.269     -13.066796      10.013102    
     89000   99.160694      50.269846      40             2.8702563     -1.0021404      4.1959572      2.4484912     -14613.197      2.0213577      9.6300722    
     89200   99.145964      50.272995      40             27.189317      19.411938      4.6375026      2.5102815     -14613.123      17.079586      9.8730974    
     89400   99.133365      50.274195      40             49.373747      39.467189      3.7022872      2.6155506     -14613.11       30.847741      10.287127    
     89600   99.126004      50.271947      40             69.493479      58.948405      1.8659992      2.6345351     -14613.181      43.435961      10.361795    
     89800   99.123584      50.266872      40             88.129147      77.399462     -1.6548575      2.6158358     -14613.222      54.624584      10.28825     
     90000   99.119787      50.263067      40             106.22298      94.59145      -4.7776608      2.6163314     -14613.103      65.34559       10.290199    
     90200   99.115054      50.261262      40             123.46752      111.56882     -5.3576051      2.6180629     -14612.943      76.55958       10.297008    
     90400   99.106444      50.263053      40             139.69132      128.22362     -4.7551838      2.4403441     -14612.765      87.71992       9.5980292    
     90600   99.098854      50.264798      40             153.32811      144.28469     -3.5274785      2.5571821     -14612.686      98.02844       10.057561    
     90800   99.097752      50.264235      40             161.83746      155.4308      -4.3844633      2.4023093     -14612.393      104.2946       9.4484359    
     91000   99.103529      50.261024      40             159.97507      157.63536     -4.4255194      2.4253832     -14612.497      104.39497      9.539187     
     91200   99.115026      50.257294      40             142.30613      145.94907     -2.9915793      2.5363217     -14612.587      95.087873      9.9755153    
     91400   99.122752      50.256874      40             108.09034      118.98658     -3.7229489      2.4706951     -14612.752      74.451324      9.7174017    
     91600   99.122293      50.262514      40             64.157598      79.911894     -1.5161395      2.5782694     -14612.792      47.517784      10.140498    
[...]
   3378200   128.65265      41355541       40             0.029455158   -4.8803288e-06  0.046665253    5510.6878     -3869.5184      0.025371844    21673.887    
   3378400   128.65464      40575676       40             0.029421564    9.9803256e-05  0.047412337    5511.5345     -3870.4404      0.025644568    21677.217    
   3378600   128.65662      40934976       40             0.029847246    0.00021894231  0.047884918    5509.4216     -3868.4454      0.025983702    21668.907    
   3378800   128.6586       41738144       40             0.028364028    7.2880832e-07  0.046237734    5507.221      -3866.5384      0.024867497    21660.252    
   3379000   128.66059      41271116       40             0.028973803   -6.3205664e-05  0.046043797    5510.2458     -3869.6411      0.024984798    21672.149    
   3379200   128.66257      41446697       40             0.028870576    7.612688e-05   0.047445465    5512.4436     -3872.0788      0.025464056    21680.793    
   3379400   128.66455      41648468       40             0.029261531    2.9962064e-05  0.04670906     5510.283      -3870.0264      0.025333518    21672.295    
   3379600   128.66653      41675232       40             0.029242981    1.614378e-05   0.045709604    5510.138      -3869.8992      0.024989576    21671.725    
   3379800   128.66852      41670985       40             0.028064415   -3.5175249e-05  0.046572067    5512.0499     -3871.8507      0.024867102    21679.244    
   3380000   128.6705       41636835       40             0.029746374    1.3545972e-05  0.046510619    5515.6125     -3875.4299      0.025423513    21693.256    
   3380200   128.67248      41723734       40             0.029062677   -7.5752779e-05  0.046636642    5505.0651     -3864.9242      0.025207855    21651.773    
   3380400   128.67447      40700301       40             0.029165729    1.1456835e-05  0.047169819    5503.8933     -3863.8294      0.025449002    21647.164    
   3380600   128.67645      41291615       40             0.029679317   -2.9348761e-05  0.047448654    5511.9595     -3872.2166      0.025699541    21678.889    
   3380800   128.67843      40953358       40             0.029999861   -4.2368063e-05  0.047305776    5510.6409     -3870.9166      0.025754423    21673.703    
   3381000   128.68041      41023445       40             0.02984893     0.00011546277  0.046951679    5511.3437     -3871.7199      0.02563869     21676.467    
   3381200   128.6824       42308062       40             0.028997759    8.7272169e-05  0.045999079    5513.0624     -3873.9349      0.025028037    21683.227    
   3381400   128.68438      42824525       40             0.028176698    4.2019889e-05  0.045815264    5517.6118     -3878.6712      0.024677994    21701.12     
   3381600   128.68636      42613075       40             0.028566311    8.1166973e-06  0.045743999    5506.086      -3867.1584      0.024772809    21655.788    
   3381800   128.68834      42759185       40             0.028290177   -9.9497445e-06  0.045434691    5513.6715     -3874.8158      0.024571639    21685.622    
   3382000   128.69033      43268197       40             0.027861706    2.7858428e-05  0.044912924    5497.8323     -3859.2312      0.024267496    21623.326    
   3382200   128.69231      44571638       40             0.026856423    9.7804904e-05  0.043557706    5510.1478     -3872.0332      0.023503978    21671.763    
   3382400   128.69429      44672678       40             0.0274609     -2.1393052e-05  0.04356926     5515.9516     -3877.9591      0.023669589    21694.59     
   3382600   128.69628      44330793       40             0.027733995    1.0133656e-05  0.043540725    5510.5085     -3872.5018      0.023761618    21673.182    
   3382800   128.69826      44015876       40             0.02666786     8.0644041e-05  0.044431372    5511.2931     -3873.2949      0.023726625    21676.268    
   3383000   128.70024      43149907       40             0.027689731   -7.1976091e-05  0.043918768    5502.2811     -3864.4141      0.023845508    21640.823    
   3383200   128.70222      42473951       40             0.02863935    -1.4219638e-05  0.045627903    5514.8205     -3876.9431      0.024751011    21690.142    
   3383400   128.70421      41794788       40             0.029494423   -9.2856622e-05  0.046732179    5511.6884     -3873.9462      0.025377915    21677.823    
   3383600   128.70619      41477107       40             0.029751004   -2.5976854e-05  0.046799982    5507.9938     -3870.3125      0.025508336    21663.292    
   3383800   128.70817      41712731       40             0.029087457   -4.298981e-05   0.0453324      5509.8289     -3872.2617      0.024792289    21670.509    
   3384000   128.71015      42251810       40             0.028903145   -1.6430119e-05  0.046667482    5515.4657     -3878.0725      0.025184732    21692.679    
   3384200   128.71214      42217151       40             0.028328381    6.795515e-05   0.046897638    5518.6536     -3881.2934      0.025097991    21705.217    
   3384400   128.71412      42848902       40             0.028549289   -0.00016695483  0.044548239    5500.4909     -3863.3409      0.024310191    21633.782    
   3384600   128.7161       42785841       40             0.02773742    -7.571581e-05   0.045273094    5500.8099     -3863.7965      0.024311599    21635.037    
   3384800   128.71809      43180786       40             0.028312775    4.0904689e-06  0.045003771    5509.072      -3872.2234      0.024440212    21667.532    
   3385000   128.72007      43267809       40             0.028263644    4.27563e-05    0.045048932    5514.2155     -3877.4237      0.024451778    21687.762    
   3385200   128.72205      43963252       40             0.028358956    7.6955592e-05  0.044159273    5512.6944     -3876.147       0.024198395    21681.779    
   3385400   128.72403      43771063       40             0.027956615   -5.5615827e-05  0.043650722    5505.9748     -3869.4823      0.023850574    21655.351    
   3385600   128.72602      43152714       40             0.028421026   -0.000100544    0.044573652    5507.5092     -3871.0669      0.024298045    21661.386    
   3385800   128.728        42948426       40             0.027633916    4.0624651e-05  0.044441975    5510.252      -3873.9321      0.024038838    21672.173    
   3386000   128.72998      43292471       40             0.027051326   -1.8630374e-05  0.044943434    5511.2206     -3875.0245      0.023992043    21675.983    
   3386200   128.73196      44099901       40             0.027506599   -0.00012076126  0.04384533     5507.3904     -3871.5585      0.023743722    21660.918    
   3386400   128.73395      43990164       40             0.02779609     8.222654e-05   0.044598395    5509.2209     -3873.698       0.024158904    21668.118    
   3386600   128.73593      43737776       40             0.02859078     0.00012021149  0.044455837    5513.1927     -3877.6768      0.024388943    21683.739    
   3386800   128.73791      43437417       40             0.028052796   -6.4440133e-05  0.043917259    5502.9569     -3867.5387      0.023968538    21643.481    
   3387000   128.7399       43234813       40             0.028275287    8.0751458e-05  0.04518454     5515.5334     -3880.1765      0.024513526    21692.945    
   3387200   128.74188      44508399       40             0.02769106    -1.7461588e-05  0.042960776    5511.4512     -3876.6216      0.023544791    21676.89     
   3387400   128.74386      44866552       40             0.027113172   -6.8584442e-05  0.043536778    5504.7653     -3870.0448      0.023527122    21650.593    
   3387600   128.74584      44331014       40             0.026701139   -1.5647141e-05  0.043982967    5504.3865     -3869.7545      0.023556153    21649.104    
   3387800   128.74783      44950968       40             0.0264482     -1.8277979e-05  0.042937296    5500.0213     -3865.6617      0.023122406    21631.935    
   3388000   128.74981      44885806       40             0.027079398   -3.4522825e-07  0.043146971    5511.3462     -3877.0346      0.023408675    21676.477    
   3388200   128.75179      44444372       40             0.027609733   -7.1087248e-06  0.043520987    5502.473      -3868.1324      0.02370787     21641.578    
   3388400   128.75378      43571453       40             0.027024963    7.1275223e-05  0.04423072     5504.5008     -3870.1718      0.023775652    21649.553    
   3388600   128.75576      44310660       40             0.027488453    8.4444103e-05  0.043926023    5510.5191     -3876.5129      0.023832973    21673.224    
   3388800   128.75774      45137188       40             0.026721996   -0.00010777964  0.042790912    5499.4447     -3865.6353      0.023135043    21629.667    
   3389000   128.75972      44690321       40             0.027466409    8.6948502e-05  0.043521372    5516.0766     -3882.311       0.023691577    21695.082    
   3389200   128.76171      45399687       40             0.026847339   -4.0328633e-06  0.042014553    5507.5408     -3873.9749      0.02295262     21661.51     
   3389400   128.76369      45157679       40             0.026930492   -9.8562517e-05  0.042413959    5501.6695     -3868.1176      0.023081963    21638.418    
   3389600   128.76567      45412707       40             0.027797908    0.00016519571  0.043760125    5513.1479     -3879.7441      0.023907743    21683.563    
   3389800   128.76765      44738063       40             0.026716539   -1.217932e-05   0.043940544    5507.8608     -3874.6112      0.023548301    21662.769    
   3390000   128.76964      44862348       40             0.027095434   -5.1316342e-05  0.044190739    5514.7621     -3881.5491      0.023744952    21689.912    
   3390200   128.77162      44467537       40             0.027682525    7.295637e-05   0.043042708    5500.1106     -3866.9443      0.023599396    21632.286    
   3390400   128.7736       43708989       40             0.027270161    9.1347875e-05  0.044034026    5510.879      -3877.734       0.023798511    21674.639    
   3390600   128.77559      43552872       40             0.027534687   -4.4120944e-05  0.045367125    5513.6087     -3880.5727      0.024285897    21685.375    
   3390800   128.77757      43848635       40             0.027925727    9.4567189e-06  0.043580875    5500.8064     -3867.8673      0.023838686    21635.023    
   3391000   128.77955      44407749       40             0.026908554   -3.5599292e-05  0.043798073    5512.0726     -3879.3664      0.023557009    21679.334    
   3391200   128.78153      44330328       40             0.027969556   -5.3142087e-05  0.043508079    5510.0048     -3877.3304      0.023808164    21671.201    
   3391400   128.78352      44171043       40             0.027933792   -7.7408951e-05  0.043361425    5501.7812     -3869.1463      0.023739269    21638.857    
   3391600   128.7855       44009010       40             0.027894916    1.2380913e-05  0.044395578    5508.4393     -3875.8846      0.024100958    21665.044    
   3391800   128.78748      43675320       40             0.027406707    0.00020788435  0.044516354    5509.5697     -3877.0204      0.024043648    21669.49     
   3392000   128.78946      44787705       40             0.026712584    7.7325985e-05  0.043396533    5508.2233     -3876.1601      0.023395481    21664.194    
   3392200   128.79145      45376617       40             0.027146617   -6.8058625e-05  0.042155104    5502.408      -3870.5162      0.023077887    21641.322    
   3392400   128.79343      44698722       40             0.02658521     5.4228476e-05  0.043336369    5504.9156     -3873.0187      0.023325269    21651.185    
   3392600   128.79541      45540651       40             0.027068966    3.9630386e-06  0.042605379    5502.4772     -3870.8023      0.023226102    21641.594    
   3392800   128.7974       45750229       40             0.026371073    2.4583219e-05  0.042201081    5505.796      -3874.3125      0.022865579    21654.648    
   3393000   128.79938      45634763       40             0.027322778   -3.025283e-06   0.042947177    5510.1044     -3878.614       0.02342231     21671.593    
   3393200   128.80136      45854541       40             0.026745341    6.1274369e-05  0.042617714    5500.719      -3869.4         0.023141443    21634.679    
   3393400   128.80334      45989324       40             0.026009855    5.3983865e-05  0.042027357    5508.9441     -3877.7539      0.022697065    21667.029    
   3393600   128.80533      46170247       40             0.026459572    0.0001038307   0.041326079    5503.3501     -3872.3163      0.022629827    21645.028    
   3393800   128.80731      46744492       40             0.02536897     1.2975719e-05  0.041746095    5501.9288     -3871.0322      0.022376014    21639.438    
   3394000   128.80929      46480702       40             0.027114799    7.7820889e-06  0.041890069    5507.3005     -3876.4196      0.023004217    21660.565    
   3394200   128.81127      46443960       40             0.025500764   -5.0709186e-05  0.041997189    5506.5536     -3875.688       0.022482415    21657.627    
   3394400   128.81326      45525981       40             0.026388775   -1.9454997e-05  0.041912224    5496.1136     -3865.2681      0.022760515    21616.566    
   3394600   128.81524      45763574       40             0.026607626   -9.080111e-06   0.042170573    5512.4116     -3881.6397      0.02292304     21680.667    
   3394800   128.81722      44890931       40             0.027354484    6.9032383e-05  0.043438136    5512.8683     -3882.2124      0.023620551    21682.463    
   3395000   128.81921      44579299       40             0.027509845   -5.1916007e-05  0.043455446    5509.2022     -3878.5646      0.023637792    21668.044    
   3395200   128.82119      44261797       40             0.027896368    9.2583372e-05  0.042972087    5507.5421     -3876.8868      0.023653679    21661.515    
   3395400   128.82317      44761251       40             0.026836927    2.8908888e-05  0.042976531    5506.8471     -3876.3379      0.023280789    21658.782    
   3395600   128.82515      45346272       40             0.02691095    -1.0140083e-05  0.042487514    5515.097      -3884.7246      0.023129441    21691.229    
   3395800   128.82714      44730032       40             0.026748227    2.1390711e-05  0.043026743    5496.2975     -3866.0169      0.023265453    21617.289    
   3396000   128.82912      45601243       40             0.026223265    4.1001105e-05  0.041898891    5506.7113     -3876.7491      0.022721052    21658.248    
   3396200   128.8311       46087491       40             0.026566418    0.00011298572  0.042017545    5499.6437     -3869.8166      0.022898983    21630.45     
   3396400   128.83309      46083862       40             0.026975691    4.9431497e-05  0.042091693    5511.3143     -3881.5754      0.023038938    21676.351    
   3396600   128.83507      45737010       40             0.026712727    2.3342344e-05  0.041920072    5508.3674     -3878.6224      0.022885381    21664.761    
   3396800   128.83705      45322575       40             0.026766827   -3.881572e-05   0.042976466    5501.8921     -3872.1712      0.023234826    21639.293    
   3397000   128.83903      45886562       40             0.025901891   -2.382447e-05   0.042586256    5500.9994     -3871.6284      0.022821441    21635.782    
   3397200   128.84102      46560384       40             0.025940781    9.6496054e-06  0.041414434    5502.6747     -3873.5101      0.022454955    21642.371    
   3397400   128.843        46959791       40             0.026191518    5.9080259e-05  0.041100618    5509.3496     -3880.3174      0.022450405    21668.624    
   3397600   128.84498      47448967       40             0.02527098     3.1039966e-05  0.041336826    5506.9685     -3878.0896      0.022212949    21659.259    
   3397800   128.84696      47481994       40             0.025142671   -1.9516604e-05  0.040719631    5499.4002     -3870.5323      0.021947595    21629.492    
   3398000   128.84895      47491604       40             0.025054478   -5.2675238e-05  0.040760675    5511.0489     -3882.1956      0.021920826    21675.307    
   3398200   128.85093      46728252       40             0.026107871   -9.9429649e-05  0.041190041    5497.0669     -3868.2201      0.022399494    21620.315    
   3398400   128.85291      46559835       40             0.025885379   -0.00010966152  0.04180958     5501.0792     -3872.2895      0.022528433    21636.096    
   3398600   128.8549       46055960       40             0.025609743   -7.0568541e-05  0.04189373     5507.4106     -3878.6077      0.022477635    21660.998    
   3398800   128.85688      46068595       40             0.026111483   -3.1634692e-05  0.042549344    5512.4484     -3883.7313      0.022876397    21680.812    
   3399000   128.85886      46311141       40             0.026222911   -2.1828775e-06  0.041663839    5507.3947     -3878.7877      0.022628189    21660.935    
   3399200   128.86084      46199684       40             0.026045426   -1.2498378e-05  0.041584636    5495.0455     -3866.4736      0.022539188    21612.365    
   3399400   128.86283      46532821       40             0.02578862     4.0118838e-05  0.041695246    5510.5258     -3882.0165      0.022507995    21673.25     
   3399600   128.86481      46399805       40             0.027106732    1.5230726e-06  0.041865439    5505.6128     -3877.117       0.022991231    21653.927    
   3399800   128.86679      46127676       40             0.025757625    4.348325e-05   0.041559312    5504.0153     -3875.5758      0.022453473    21647.644    
   3400000   128.86877      47188129       40             0.026191065    5.0939416e-05  0.041014969    5505.1343     -3877.017       0.022418991    21652.045    
   3400200   128.87076      47361051       40             0.025246619   -5.4419897e-05  0.041094513    5503.2218     -3875.1839      0.022095571    21644.523    
   3400400   128.87274      47539655       40             0.025982333    8.7648248e-05  0.040730523    5507.5917     -3879.6059      0.022266835    21661.71     
   3400600   128.87472      48343392       40             0.024992305   -8.1223404e-05  0.040279019    5500.1756     -3872.3778      0.021730034    21632.542    
   3400800   128.87671      48002346       40             0.025096982   -9.7870702e-05  0.040073501    5502.296      -3874.6262      0.021690871    21640.882    
   3401000   128.87869      47805413       40             0.02619087    -4.2464314e-06  0.040661895    5509.0988     -3881.5519      0.022282839    21667.638    
Loop time of 73256.3 on 32 procs for 3000000 steps with 1968 atoms

Performance: 0.354 ns/day, 67.830 hours/ns, 40.952 timesteps/s, 80.594 katom-step/s
92.4% CPU use with 32 MPI tasks x no OpenMP threads

MPI task timing breakdown:
Section |  min time  |  avg time  |  max time  |%varavg| %total
---------------------------------------------------------------
Pair    | 1235.4     | 1329.8     | 2033.7     | 475.2 |  1.82
Neigh   | 69304      | 70081      | 70576      | 160.0 | 95.67
Comm    | 456.16     | 1403.6     | 2363.6     |1156.3 |  1.92
Output  | 5.7037     | 5.7475     | 5.8802     |   1.3 |  0.01
Modify  | 89.204     | 419.98     | 1122.5     |1415.9 |  0.57
Other   |            | 16.56      |            |       |  0.02

Nlocal:           61.5 ave          82 max          41 min
Histogram: 2 1 6 4 2 6 3 4 2 2
Nghost:         180.75 ave         229 max         132 min
Histogram: 4 0 4 2 4 9 2 2 4 1
Neighs:              0 ave           0 max           0 min
Histogram: 32 0 0 0 0 0 0 0 0 0
FullNghs:         54.5 ave         127 max          18 min
Histogram: 2 7 4 9 5 2 2 0 0 1

Total # of neighbors = 1744
Ave neighs/atom = 0.88617886
Neighbor list builds = 350128
Dangerous builds = 346552




Total wall time: 20:27:11
